302
Step 1 E=        -2.2949
 C      0.00000000      0.00000000      0.00000000
 C      1.54000000      0.00000000      0.00000000
 C      2.16637443      1.40686000      0.00000000
 C      3.70637443      1.40686000      0.00000000
 C      4.33274886      2.81372001      0.00000000
 C      5.87274886      2.81372001      0.00000000
 C      6.49912329      4.22058001      0.00000000
 C      8.03912329      4.22058001      0.00000000
 C      8.66549772      5.62744002      0.00000000
 C     10.20549772      5.62744002      0.00000000
 C     10.83187215      7.03430002      0.00000000
 C     12.37187215      7.03430002      0.00000000
 C     12.99824658      8.44116003      0.00000000
 C     14.53824658      8.44116003      0.00000000
 C     15.16462101      9.80766904     -0.33452684
 C     16.68368640      9.87685529     -0.09110620
 C     17.31006083     11.24336430     -0.42563304
 C     18.78861071     11.37214170     -0.01465049
 C     19.41498514     12.73865071     -0.34917733
 C     20.94749439     12.77795501     -0.20264895
 C     21.57386882     14.14446402     -0.53717579
 C     23.10637807     14.18376833     -0.39064741
 C     23.70153118     15.60394145     -0.41303178
 C     25.23404043     15.64324576     -0.26650340
 C     25.82919354     17.06341889     -0.28888777
 C     27.36170280     17.10272319     -0.14235940
 C     27.95685591     18.52289632     -0.16474376
 C     29.48936516     18.56220063     -0.01821539
 C     30.08451827     19.98237375     -0.04059976
 C     31.61702752     20.02167806      0.10592862
 C     32.21218063     21.44185119      0.08354425
 C     33.74468989     21.48115549      0.23007263
 C     34.33984300     22.90132862      0.20768826
 C     35.87235225     22.94063293      0.35421663
 C     36.46750536     24.36080605      0.33183227
 C     38.00001461     24.40011036      0.47836064
 C     38.59516772     25.82028349      0.45597627
 C     40.12767698     25.85958779      0.60250465
 C     40.72283009     27.27976092      0.58012028
 C     42.25533934     27.31906523      0.72664866
 C     42.85049245     28.73923835      0.70426429
 C     44.38300170     28.77854266      0.85079266
 C     44.97815481     30.19871579      0.82840830
 C     46.51066407     30.23802009      0.97493667
 C     47.10581718     31.65819322      0.95255230
 C     48.63832643     31.69749753      1.09908068
 C     49.23347954     33.11767065      1.07669631
 C     50.76598879     33.15697496      1.22322469
 C     51.35723302     34.57884158      1.24126828
 C     52.89492926     34.61878913      1.16714359
 C     53.48617348     36.04065575      1.18518718
 C     55.02386972     36.08060329      1.11106250
 C     55.61511395     37.50246991      1.12910609
 C     57.15281019     37.54241746      1.05498140
 C     57.74405441     38.96428408      1.07302500
 C     59.28281711     39.00222980      1.12170234
 C     59.88281166     40.40011014      0.88183345
 C     61.42157435     40.43805586      0.93051079
 C     62.02156890     41.83593621      0.69064191
 C     63.56033160     41.87388193      0.73931925
 C     64.16032615     43.27176227      0.49945036
 C     65.69908884     43.30970799      0.54812771
 C     66.29908339     44.70758834      0.30825882
 C     67.83784609     44.74553405      0.35693616
 C     68.43784064     46.14341440      0.11706728
 C     69.97660333     46.18136012      0.16574462
 C     70.58573909     47.51287372     -0.31135616
 C     72.12450179     47.55081944     -0.26267882
 C     72.73363755     48.88233304     -0.73977959
 C     74.27240024     48.92027876     -0.69110225
 C     74.88153600     50.25179237     -1.16820302
 C     76.42029870     50.28973809     -1.11952568
 C     77.02943445     51.62125169     -1.59662646
 C     78.56819715     51.65919741     -1.54794912
 C     79.16454842     53.07245003     -1.68463190
 C     80.70331112     53.11039575     -1.63595456
 C     81.29966239     54.52364837     -1.77263734
 C     82.83842509     54.56159409     -1.72396000
 C     83.43477636     55.97484672     -1.86064279
 C     84.97353906     56.01279243     -1.81196544
 C     85.56989033     57.42604506     -1.94864823
 C     87.10865303     57.46399077     -1.89997089
 C     87.70500430     58.87724340     -2.03665367
 C     89.23225548     58.93366880     -1.84712791
 C     89.82860675     60.34692142     -1.98381070
 C     91.35585793     60.40334683     -1.79428494
 C     91.95220920     61.81659945     -1.93096773
 C     93.47946038     61.87302485     -1.74144197
 C     94.07581165     63.28627748     -1.87812476
 C     95.60306283     63.34270288     -1.68859900
 C     96.19941410     64.75595550     -1.82528178
 C     97.72666528     64.81238090     -1.63575603
 C     98.32301655     66.22563353     -1.77243881
 C     99.85026773     66.28205893     -1.58291306
 C    100.45586772     67.68270509     -1.79037143
 C    101.98311890     67.73913050     -1.60084567
 C    102.58871889     69.13977666     -1.80830404
 C    104.06420009     69.25363181     -1.38216763
 C    104.66980008     70.65427797     -1.58962600
 C    106.14528128     70.76813313     -1.16348959
 H     -0.36333333      0.00000000      1.02766186
 H     -0.36333333     -0.88998127     -0.51383093
 H     -0.36333333      0.88998127     -0.51383093
 H      1.88274777     -0.52778528     -0.88998127
 H      1.88274777     -0.52778528      0.88998127
 H      1.82362666      1.93464528      0.88998127
 H      1.82362666      1.93464528     -0.88998127
 H      4.04912220      0.87907473     -0.88998127
 H      4.04912220      0.87907473      0.88998127
 H      3.99000109      3.34150529      0.88998127
 H      3.99000109      3.34150529     -0.88998127
 H      6.21549663      2.28593473     -0.88998127
 H      6.21549663      2.28593473      0.88998127
 H      6.15637552      4.74836529      0.88998127
 H      6.15637552      4.74836529     -0.88998127
 H      8.38187106      3.69279473     -0.88998127
 H      8.38187106      3.69279473      0.88998127
 H      8.32274995      6.15522530      0.88998127
 H      8.32274995      6.15522530     -0.88998127
 H     10.54824549      5.09965474     -0.88998127
 H     10.54824549      5.09965474      0.88998127
 H     10.48912438      7.56208530      0.88998127
 H     10.48912438      7.56208530     -0.88998127
 H     12.71461992      6.50651474     -0.88998127
 H     12.71461992      6.50651474      0.88998127
 H     12.65549881      8.96894531      0.88998127
 H     12.65549881      8.96894531     -0.88998127
 H     14.88099435      7.71689041     -0.73895703
 H     14.88099435      8.14013454      0.98995334
 H     14.68357912     10.56573921      0.28355755
 H     14.97587466     10.02298335     -1.38624665
 H     17.16472829      9.11878512     -0.70919059
 H     16.87243276      9.66154097      0.96061361
 H     16.74197126     12.01662529      0.09151460
 H     17.23876105     11.39877641     -1.50213823
 H     19.35670027     10.59888071     -0.53179813
 H     18.85991049     11.21672959      1.06185469
 H     18.98739502     13.48484797      0.32049150
 H     19.16270005     12.98825844     -1.37978308
 H     21.37508451     12.03175776     -0.87231778
 H     21.19977948     12.52834728      0.82795680
 H     21.14627870     14.89066128      0.13249304
 H     21.32158373     14.39407175     -1.56778154
 H     23.54387133     13.61581936     -1.21170381
 H     23.37218545     13.71564799      0.55714465
 H     23.26403792     16.17189042      0.40802462
 H     23.43572380     16.07206180     -1.36082383
 H     25.67153369     15.07529679     -1.08755981
 H     25.49984782     15.17512542      0.68128865
 H     25.39170029     17.63136786      0.53216863
 H     25.56338616     17.53153923     -1.23667983
 H     27.79919605     16.53477422     -0.96341580
 H     27.62751018     16.63460285      0.80543266
 H     27.51936265     19.09084529      0.65631264
 H     27.69104852     18.99101666     -1.11253582
 H     29.92685842     17.99425166     -0.83927179
 H     29.75517254     18.09408029      0.92957667
 H     29.64702501     20.55032272      0.78045665
 H     29.81871089     20.45049409     -0.98839181
 H     32.05452078     19.45372909     -0.71512778
 H     31.88283491     19.55355772      1.05372068
 H     31.77468738     22.00980016      0.90460065
 H     31.94637325     21.90997153     -0.86424780
 H     34.18218314     20.91320652     -0.59098378
 H     34.01049727     21.01303515      1.17786468
 H     33.90234974     23.46927759      1.02874466
 H     34.07403561     23.36944896     -0.74010380
 H     36.30984551     22.37268396     -0.46683977
 H     36.13815963     22.47251259      1.30200869
 H     36.03001210     24.92875502      1.15288867
 H     36.20169798     24.82892639     -0.61595979
 H     38.43750787     23.83216139     -0.34269576
 H     38.26582200     23.93199002      1.42615270
 H     38.15767447     26.38823246      1.27703268
 H     38.32936034     26.28840383     -0.49181578
 H     40.56517023     25.29163882     -0.21855175
 H     40.39348436     25.39146745      1.55029670
 H     40.28533683     27.84770989      1.40117668
 H     40.45702270     27.74788126     -0.36767178
 H     42.69283260     26.75111626     -0.09440775
 H     42.52114672     26.85094489      1.67444071
 H     42.41299919     29.30718732      1.52532069
 H     42.58468507     29.20735869     -0.24352777
 H     44.82049496     28.21059369      0.02973626
 H     44.64880909     28.31042232      1.79858472
 H     44.54066156     30.76666476      1.64946470
 H     44.71234743     30.66683613     -0.11938376
 H     46.94815732     29.67007112      0.15388027
 H     46.77647145     29.76989975      1.92272873
 H     46.66832392     32.22614219      1.77360871
 H     46.84000979     32.12631356      0.00476025
 H     49.07581969     31.12954856      0.27802428
 H     48.90413382     31.22937719      2.04687273
 H     48.79598628     33.68561962      1.89775271
 H     48.96767216     33.58579099      0.12890425
 H     51.20439768     32.61407633      0.38587248
 H     51.03381340     32.66253365      2.15697935
 H     51.04576078     35.06787016      2.16427212
 H     50.95857995     35.12667032      0.38741852
 H     53.20640149     34.12976054      0.24413975
 H     53.29358232     34.07096038      2.02099335
 H     53.17470125     36.52968433      2.10819103
 H     53.08752042     36.58848449      0.33133743
 H     55.33534196     35.59157471      0.18805865
 H     55.42252279     35.53277455      1.96491225
 H     55.30364171     37.99149850      2.05210993
 H     55.21646088     38.05029866      0.27525634
 H     57.46428242     37.05338888      0.13197756
 H     57.55146325     36.99458872      1.90883116
 H     57.36044174     39.48388083      1.95106858
 H     57.41674161     39.48304663      0.17199683
 H     59.66668763     38.32843192      0.35571289
 H     59.60330666     38.65566535      2.10418874
 H     59.49894114     41.07390803      1.64782290
 H     59.56232210     40.74667459     -0.10065295
 H     61.80544487     39.76425798      0.16452135
 H     61.74206391     40.09149142      1.91299720
 H     61.63769838     42.50973409      1.45663136
 H     61.70107935     42.18250066     -0.29184449
 H     63.94420212     41.20008404     -0.02667020
 H     63.88082115     41.52731748      1.72180565
 H     63.77645563     43.94556016      1.26543981
 H     63.83983659     43.61832672     -0.48303604
 H     66.08295936     42.63591011     -0.21786174
 H     66.01957840     42.96314354      1.53061411
 H     65.91521287     45.38138622      1.07424827
 H     65.97859384     45.05415278     -0.67422758
 H     68.22171661     44.07173617     -0.40905329
 H     68.15833564     44.39896961      1.33942256
 H     68.05397012     46.81721228      0.88305672
 H     68.11735108     46.48997885     -0.86541913
 H     70.35941529     45.38232442     -0.46915456
 H     70.29129279     46.00982861      1.19513642
 H     70.20292714     48.31190942      0.32354302
 H     70.27104964     47.68440523     -1.34074796
 H     72.50731374     46.75178374     -0.89757799
 H     72.43919124     47.37928794      0.76671299
 H     72.35082559     49.68136874     -0.10488041
 H     72.41894809     49.05386455     -1.76917140
 H     74.65521219     48.12124307     -1.32600143
 H     74.58708970     48.74874726      0.33828956
 H     74.49872405     51.05082806     -0.53330385
 H     74.56684655     50.42332387     -2.19759483
 H     76.80311065     49.49070239     -1.75442486
 H     76.73498815     50.11820658     -0.09013388
 H     76.64662250     52.42028739     -0.96172728
 H     76.71474500     51.79278320     -2.62601826
 H     78.95213343     51.04492865     -2.36242245
 H     78.89135450     51.24156998     -0.59439961
 H     78.78061214     53.68671879     -0.87015856
 H     78.84139107     53.49007746     -2.63818140
 H     81.08724740     52.49612699     -2.45042790
 H     81.02646847     52.69276832     -0.68240505
 H     80.91572611     55.13791713     -0.95816400
 H     80.97650504     54.94127580     -2.72618685
 H     83.22236137     53.94732533     -2.53843334
 H     83.16158244     54.14396666     -0.77041050
 H     83.05084008     56.58911548     -1.04616945
 H     83.11161901     56.39247414     -2.81419229
 H     85.35747534     55.39852367     -2.62643878
 H     85.29669641     55.59516500     -0.85841594
 H     85.18595405     58.04031382     -1.13417489
 H     85.24673298     57.84367249     -2.90219773
 H     87.49258931     56.84972201     -2.71444422
 H     87.43181038     57.04636335     -0.94642138
 H     87.24258145     59.51843667     -1.28622959
 H     87.46897064     59.25408096     -3.03183283
 H     89.69467833     58.29247553     -2.59755199
 H     89.46828914     58.55683123     -0.85194876
 H     89.36618390     60.98811469     -1.23338662
 H     89.59257309     60.72375899     -2.97898986
 H     91.81828078     59.76215356     -2.54470902
 H     91.59189159     60.02650926     -0.79910578
 H     91.48978635     62.45779272     -1.18054365
 H     91.71617554     62.19343702     -2.92614689
 H     93.94188323     61.23183158     -2.49186605
 H     93.71549404     61.49618729     -0.74626281
 H     93.61338880     63.92747075     -1.12770068
 H     93.83977799     63.66311504     -2.87330391
 H     96.06548568     62.70150961     -2.43902308
 H     95.83909649     62.96586531     -0.69341984
 H     95.73699125     65.39714877     -1.07485770
 H     95.96338044     65.13279307     -2.82046094
 H     98.18908813     64.17118763     -2.38618011
 H     97.96269894     64.43554334     -0.64057687
 H     97.86059370     66.86682680     -1.02201473
 H     98.08698289     66.60247109     -2.76761797
 H    100.30987992     65.60047288     -2.29866237
 H    100.08217271     65.95507280     -0.56930556
 H     99.99625553     68.36429115     -1.07462211
 H    100.22396274     68.00969122     -2.80397892
 H    102.44273109     67.05754444     -2.31659499
 H    102.21502388     67.41214437     -0.58723817
 H    102.00749844     69.85426729     -1.22539244
 H    102.51726532     69.39076852     -2.86660337
 H    104.64542055     68.53914118     -1.96507922
 H    104.13565367     69.00263995     -0.32386830
 H    104.08857963     71.36876860     -1.00671441
 H    104.59834651     70.90526984     -2.64792533
 H    106.77853933     70.79499506     -2.05026052
 H    106.41403370     69.90744940     -0.55103905
 H    106.28760491     71.68254071     -0.58755317
302
Step 10000 E=        37.4994
 C      0.00000000      0.00000000      0.00000000
 C      1.54000000      0.00000000      0.00000000
 C      2.16637443      0.62552198      1.26014972
 C      2.03000279     -0.24299997      2.52453590
 C      0.70138937     -0.04764514      3.27834150
 C      0.51846193     -0.99262483      4.48048581
 C     -0.71771910     -0.67695865      5.34293079
 C     -1.13992913     -1.82631852      6.27690646
 C     -2.41790779     -1.53826785      7.08647261
 C     -2.19684405     -0.61358432      8.29795566
 C     -3.38811049     -0.56250476      9.27257104
 C     -3.11116033      0.23767308     10.55888906
 C     -1.79830241     -0.14750971     11.26574003
 C     -1.76777467     -1.59752188     11.78355541
 C     -0.87598566     -1.80159906     13.02237132
 C     -1.20784700     -3.06946331     13.83106674
 C     -0.38784636     -3.21895642     15.12599947
 C     -1.03419893     -2.55626035     16.35671563
 C     -0.23002509     -2.73317469     17.65810172
 C     -0.73825954     -1.87333742     18.83026963
 C     -0.62143249     -0.35650097     18.59119095
 C     -1.20020406      0.50351838     19.73004572
 C     -1.41347435      1.98126865     19.35272633
 C     -2.34129529      2.74585115     20.31509939
 C     -2.60046325      4.20775635     19.90611873
 C     -3.23302047      5.06627521     21.01716181
 C     -3.70315832      6.45463338     20.54489917
 C     -4.46424225      7.25640168     21.61705533
 C     -3.56000240      7.85750426     22.70912950
 C     -4.32469178      8.36837929     23.94438528
 C     -4.76653429      7.25499057     24.91223896
 C     -5.26066483      7.77071841     26.27659221
 C     -6.62409529      8.48447989     26.22000667
 C     -7.22209426      8.80326696     27.60289207
 C     -8.45528338      9.72442566     27.55481673
 C     -9.17134667      9.88365170     28.90888483
 C    -10.57830560     10.50106427     28.80463367
 C    -11.31471751     10.61287597     30.15251929
 C    -12.77762047     11.07825857     30.03031473
 C    -13.67814457     10.62604974     31.19485908
 C    -13.04459143     10.81357935     32.58591733
 C    -14.00478681     10.52698022     33.75531281
 C    -13.34672925     10.62381263     35.14426340
 C    -14.34636828     10.58490394     36.31507846
 C    -13.70095364     10.79732604     37.69707585
 C    -14.69793398     10.74039581     38.86941929
 C    -14.04997923     10.41193824     40.22731114
 C    -14.97661114      9.65484506     41.19672500
 C    -14.34112624      9.35860085     42.56785531
 C    -14.91160922      8.11012432     43.26603548
 C    -14.22409811      7.77013464     44.60145133
 C    -14.89892087      6.62538351     45.37975659
 C    -15.18578735      5.37380045     44.52955223
 C    -15.65103858      4.15441607     45.34701356
 C    -15.43793145      2.80522595     44.63576721
 C    -14.05882412      2.66132100     43.96572667
 C    -13.88767432      1.36168948     43.15747814
 C    -12.52998064      1.24434646     42.44019266
 C    -12.58882834      1.55545607     40.93309354
 C    -11.27857718      1.25807233     40.18049484
 C    -11.24881246      1.79630547     38.73792105
 C     -9.87975329      1.65895974     38.04624690
 C     -9.81299614      2.31339711     36.65381909
 C     -8.38951806      2.40827397     36.07389795
 C     -8.34305746      2.47960887     34.53625276
 C     -6.98473125      2.93471765     33.97107501
 C     -7.05330882      3.46582698     32.52718444
 C     -5.73388467      4.07844131     32.02178994
 C     -5.82905695      4.69728500     30.61481634
 C     -6.60527131      3.83473794     29.60234223
 C     -6.95054596      4.56570512     28.29158962
 C     -7.88533108      3.77253232     27.35957370
 C     -8.07785158      4.41319946     25.97246106
 C     -7.27917487      3.72647335     24.84901869
 C     -7.42450691      4.40327364     23.47336613
 C     -6.79837384      3.60627919     22.31390193
 C     -7.20165262      4.11221155     20.91640464
 C     -6.36678049      3.51427900     19.76877003
 C     -6.71587917      4.07989154     18.37959309
 C     -6.16440025      3.24700632     17.20751237
 C     -6.74827750      3.63274188     15.83569043
 C     -5.84800275      3.25765185     14.64387968
 C     -6.37613934      3.74551689     13.28202086
 C     -5.45053769      3.41512007     12.09639886
 C     -6.02871192      3.80401836     10.72305525
 C     -5.42547864      3.01799283      9.54412630
 C     -5.82936939      3.55761553      8.15946764
 C     -4.89133468      3.12071199      7.01893873
 C     -5.39497295      3.49961061      5.61381086
 C     -4.43393719      3.10593805      4.47669513
 C     -4.96914124      3.42014250      3.06728668
 C     -4.02747649      2.98631733      1.92857547
 C     -4.63956939      3.12539291      0.52230371
 C     -4.04860177      2.15458075     -0.51686953
 C     -4.65469539      2.29946089     -1.92515227
 C     -3.86442254      1.56722106     -3.02555840
 C     -4.63532812      1.40676244     -4.34902265
 C     -5.21570198      2.72277205     -4.89937243
 C     -5.89152452      2.58202102     -6.27598169
 C     -6.48571331      3.89481619     -6.81922061
 H     -0.36333333      0.00000000      1.02766186
 H     -0.36333333     -0.88998127     -0.51383093
 H     -0.36333333      0.88998127     -0.51383093
 H      1.88274777     -0.42657900      0.94268464
 H      1.88274777      0.08492879      1.03121824
 H      1.49134423      0.45554110      2.09892307
 H      1.82362666      1.65735950      1.33719053
 H      2.51832949     -1.19941358      2.33769367
 H      0.96903709     -0.39096996      2.72592274
 H      0.37654919     -1.01670446      3.65715926
 H      0.86974170     -0.26816708      4.33244186
 H      1.33734824     -0.82097426      5.17909964
 H     -0.54933528     -1.14665706      4.63599529
 H     -1.60351255     -0.74966612      4.71191289
 H     -0.62218443      0.34161454      5.71907142
 H     -0.30626927     -2.05123201      6.94213211
 H     -1.36286453     -2.70061772      5.66535048
 H     -3.23168727     -1.34892144      6.38646482
 H     -2.54019932     -0.45771313      7.16094594
 H     -1.79863395      0.33475471      7.93714852
 H     -1.47031889     -1.08425614      8.96032206
 H     -3.57316846     -1.57157909      9.64084071
 H     -4.26272736     -0.20889766      8.72657898
 H     -2.85372011      1.25903358     10.27844785
 H     -2.04363829      0.18435543     10.77255688
 H     -0.97381235      0.02109129     10.57299921
 H     -1.69398320     -1.23184401     11.22783722
 H     -2.14891199     -2.25007518     10.99805650
 H     -2.41642036     -1.66325296     12.65707598
 H     -1.12626870     -1.03433751     13.75501593
 H      0.16450604     -1.68786924     12.71816322
 H     -1.08950281     -3.93367085     13.17743077
 H     -2.24429909     -3.00341786     14.16198224
 H     -0.45034233     -2.28305533     15.68123222
 H      0.65516068     -3.38159441     14.85436518
 H     -0.94776858     -3.24150241     17.19996714
 H     -1.15621686     -1.49319644     16.14909399
 H     -0.36787381     -1.84176592     18.27005608
 H      0.04877447     -3.78301454     17.74869476
 H     -1.77545063     -2.14330464     19.02889578
 H     -1.40742175     -1.11103414     18.43125129
 H     -1.20174488     -0.10368738     17.70382247
 H      0.42786511     -0.11636643     18.41969760
 H     -0.52810290      0.43667482     20.58556425
 H     -2.17576541      0.10053832     20.00205146
 H     -2.10097426      2.02353250     18.50794373
 H     -0.45173792      2.40248986     19.05991969
 H     -1.90666367      2.70642399     21.31391912
 H     -3.31205604      2.25018677     20.32145423
 H     -3.05599353      4.21102771     18.91587560
 H     -1.64324099      4.72768793     19.86743176
 H     -2.56166072      5.06446713     21.87586595
 H     -4.02717857      5.66797477     20.57515438
 H     -4.44241442      6.31612145     19.75596643
 H     -2.84203854      6.99068505     20.14587368
 H     -3.90588913      7.19557054     22.55120808
 H     -5.34039201      6.68163625     21.91723246
 H     -2.84031686      8.52189376     22.23086251
 H     -3.03019137      7.04255477     23.20234101
 H     -5.15362143      7.68811675     24.13988084
 H     -5.02662347      9.13639954     23.61952097
 H     -3.87735293      6.72546832     25.25438322
 H     -5.41348284      6.56582368     24.36946223
 H     -5.65285802      8.77856346     26.14045678
 H     -6.34429272      7.65889308     26.31327580
 H     -7.36222883      7.78315355     25.83090483
 H     -6.53819965      9.33439136     25.54297459
 H     -6.52207123      9.44350436     28.13970099
 H     -7.34781215      7.86667927     28.14612178
 H     -9.22314620      9.23806920     26.95319884
 H     -8.16400530     10.66274307     27.08278121
 H     -8.46183118     10.29788227     29.62519538
 H     -9.49286137      8.89774116     29.24460599
 H    -11.18773442      9.85970420     28.16795967
 H    -10.48725749     11.48620282     28.34712710
 H    -10.71652099     11.23374674     30.81943789
 H    -12.34558310     10.28969024     30.00771903
 H    -13.37721041     10.51555738     30.74582803
 H    -12.78687655     12.05785499     29.55239718
 H    -13.10175852      9.95732654     31.83414650
 H    -13.66709269      9.53679752     31.23368506
 H    -12.81718993     11.87122824     32.71921164
 H    -12.12097098     10.23592779     32.62257698
 H    -14.34883287      9.49610020     33.67153517
 H    -14.85653421     11.20212026     33.67277632
 H    -12.94967450     11.63160720     35.26590883
 H    -12.52960480      9.90370769     35.18735070
 H    -14.89948445      9.64714229     36.26248943
 H    -15.03702599     11.42081869     36.20399987
 H    -13.20806190     11.76951552     37.69938952
 H    -12.95955751     10.01371068     37.85321281
 H    -15.17946417      9.76254964     38.86266907
 H    -15.44869684     11.51614624     38.71886564
 H    -13.30645815     11.17822379     40.44658916
 H    -13.55930142      9.44192505     40.14725055
 H    -15.25204862      8.70581375     40.73675352
 H    -15.87227958     10.25570938     41.35433249
 H    -14.21108538     10.30287640     43.09656416
 H    -13.36726772      8.89798124     42.40193620
 H    -14.74580892      7.24932235     42.61824675
 H    -15.98225020      8.25646402     43.40890804
 H    -14.33951846      8.62107705     45.27277477
 H    -13.16480169      7.60083217     44.40824740
 H    -15.63479618      6.15478775     44.72773882
 H    -15.92927033      6.91346413     45.58829805
 H    -14.24029786      5.00632782     44.13066190
 H    -15.84019229      5.66111681     43.70656772
 H    -16.56410360      4.42531183     45.87713405
 H    -14.87181607      3.90767905     46.06814678
 H    -14.83609720      2.97927873     43.74380243
 H    -16.06277917      2.78602274     43.74285256
 H    -13.29535426      2.95406178     44.68650167
 H    -14.02351603      3.33137920     43.10672996
 H    -14.65077247      1.33889070     42.37949264
 H    -14.03090973      0.51734375     43.83176585
 H    -12.71479162      0.99524127     41.39525653
 H    -12.67614751      0.67825600     41.52025960
 H    -12.95593280      2.57405922     40.80746738
 H    -12.04418854      0.77573771     40.40064001
 H    -11.04524450      0.20044404     40.30328845
 H    -10.48467158      1.85914653     40.62380477
 H    -11.38656865      2.87701554     38.77240257
 H    -12.07180844      1.34256083     38.18574949
 H     -9.61162967      0.60269474     38.02357586
 H     -9.69683485      2.56313739     37.46564065
 H    -10.03705455      3.37454456     36.76274070
 H    -10.56605817      1.84632649     36.01912026
 H     -7.98217477      1.40005396     35.99863932
 H     -7.77891025      2.99665433     36.75878236
 H     -8.90258132      3.35882618     34.21686276
 H     -8.81671325      1.58272797     34.13706001
 H     -6.20092264      2.34411740     34.44534857
 H     -6.84615453      3.98733854     34.21782543
 H     -7.73524398      4.31591216     32.50669955
 H     -7.44198313      2.67276520     31.88836890
 H     -4.96008092      3.31220228     32.06875284
 H     -5.46626727      4.90583373     32.67898299
 H     -6.58533341      5.48195016     30.63594685
 H     -6.77936442      4.39837525     30.17247183
 H     -7.61665947      3.68802801     29.98138073
 H     -6.10487071      2.86995669     29.51929767
 H     -6.02044414      4.88917730     27.82428206
 H     -7.55731264      5.43785064     28.53509808
 H     -8.81340876      3.57187693     27.89483928
 H     -7.39956458      2.82962170     27.10847519
 H     -7.09438345      4.58822348     25.53627644
 H     -8.49662008      5.41003793     26.11046831
 H     -7.76052093      2.77622967     24.61784144
 H     -6.26747622      3.54277455     25.21071001
 H     -7.07825560      5.43319585     23.55979687
 H     -8.47905035      4.39640867     23.19770145
 H     -7.28168136      2.63034197     22.26851041
 H     -5.73623413      3.47642456     22.52150011
 H     -6.88934418      5.15252205     20.82520433
 H     -8.28633132      4.04949026     20.82900812
 H     -6.48404746      2.43077693     19.78805027
 H     -5.32052583      3.76954848     19.93696238
 H     -5.89500402      3.85076823     17.70005906
 H     -7.76789922      3.87540648     18.18074724
 H     -6.57415406      2.23957928     17.28026243
 H     -5.07894083      3.20513702     17.29765014
 H     -6.51914376      4.68179450     15.64837702
 H     -7.82927179      3.49802344     15.87313750
 H     -5.69143620      2.17905713     14.65872388
 H     -4.89100636      3.76539724     14.76409834
 H     -6.56177534      4.81741279     13.35042013
 H     -7.31179184      3.22742754     13.07169295
 H     -5.32760280      2.33312579     12.04869786
 H     -4.48272916      3.88317045     12.27633079
 H     -6.21705953      4.87762170     10.72202759
 H     -6.96865109      3.27010393     10.58323492
 H     -5.61403802      1.95691098      9.70737665
 H     -4.35050626      3.19752641      9.52674575
 H     -5.49878101      4.59364357      8.08559463
 H     -6.91560542      3.51622465      8.07898113
 H     -4.88923276      2.03159674      6.97508049
 H     -3.88658658      3.47713719      7.24596814
 H     -5.50612190      4.58304970      5.57015710
 H     -5.24651152      2.64451011      4.95436994
 H     -4.28867528      2.02614708      4.50910556
 H     -3.48025053      3.60606695      4.64537488
 H     -5.15577180      4.49209775      3.00262620
 H     -5.90514313      2.87930913      2.92764525
 H     -3.87156554      1.91016299      2.00396519
 H     -3.07528911      3.50122319      2.05629056