602
Step 1 E=       -10.3239
 C      0.00000000      0.00000000      0.00000000
 C      1.54000000      0.00000000      0.00000000
 C      2.16637443      1.40686000      0.00000000
 C      3.70637443      1.40686000      0.00000000
 C      4.33274886      2.81372001      0.00000000
 C      5.87274886      2.81372001      0.00000000
 C      6.49912329      4.22058001      0.00000000
 C      8.03912329      4.22058001      0.00000000
 C      8.66549772      5.62744002      0.00000000
 C     10.20549772      5.62744002      0.00000000
 C     10.83187215      7.03430002      0.00000000
 C     12.37187215      7.03430002      0.00000000
 C     12.99824658      8.44116003      0.00000000
 C     14.53824658      8.44116003      0.00000000
 C     15.16462101      9.84802003      0.00000000
 C     16.70462101      9.84802003      0.00000000
 C     17.33099544     11.25488004      0.00000000
 C     18.87099544     11.25488004      0.00000000
 C     19.49736987     12.66174004      0.00000000
 C     21.03736987     12.66174004      0.00000000
 C     21.66374430     14.06860005      0.00000000
 C     23.20374430     14.06860005      0.00000000
 C     23.83011873     15.47546005      0.00000000
 C     25.37011873     15.47546005      0.00000000
 C     25.99649316     16.88232006      0.00000000
 C     27.53649316     16.88232006      0.00000000
 C     28.16286759     18.28918006      0.00000000
 C     29.70286759     18.28918006      0.00000000
 C     30.32924202     19.69604007      0.00000000
 C     31.86924202     19.69604007      0.00000000
 C     32.49561646     21.10290007      0.00000000
 C     34.03561646     21.10290007      0.00000000
 C     34.66199089     22.50976008      0.00000000
 C     36.20199089     22.50976008      0.00000000
 C     36.82836532     23.91662008      0.00000000
 C     38.36836532     23.91662008      0.00000000
 C     38.99473975     25.32348009      0.00000000
 C     40.53473975     25.32348009      0.00000000
 C     41.16111418     26.73034009      0.00000000
 C     42.70111418     26.73034009      0.00000000
 C     43.32748861     28.13720010      0.00000000
 C     44.86748861     28.13720010      0.00000000
 C     45.49386304     29.54406010      0.00000000
 C     47.03386304     29.54406010      0.00000000
 C     47.66023747     30.95092010      0.00000000
 C     49.20023747     30.95092010      0.00000000
 C     49.82661190     32.35778011      0.00000000
 C     51.36661190     32.35778011      0.00000000
 C     51.99298633     33.76464011      0.00000000
 C     53.53298633     33.76464011      0.00000000
 C     54.15936076     35.17150012      0.00000000
 C     55.69936076     35.17150012      0.00000000
 C     56.32573519     36.57836012      0.00000000
 C     57.86573519     36.57836012      0.00000000
 C     58.49210962     37.98522013      0.00000000
 C     60.03210962     37.98522013      0.00000000
 C     60.65848405     39.39208013      0.00000000
 C     62.19848405     39.39208013      0.00000000
 C     62.82485848     40.79894014      0.00000000
 C     64.36485848     40.79894014      0.00000000
 C     64.99123291     42.20580014      0.00000000
 C     66.53123291     42.20580014      0.00000000
 C     67.15760734     43.61266015      0.00000000
 C     68.69760734     43.61266015      0.00000000
 C     69.32398177     45.01952015      0.00000000
 C     70.86398177     45.01952015      0.00000000
 C     71.49035620     46.42638016      0.00000000
 C     73.03035620     46.42638016      0.00000000
 C     73.65673063     47.83324016      0.00000000
 C     75.19673063     47.83324016      0.00000000
 C     75.82310506     49.24010017      0.00000000
 C     77.36310506     49.24010017      0.00000000
 C     77.98947949     50.64696017      0.00000000
 C     79.52947949     50.64696017      0.00000000
 C     80.15585392     52.05382018      0.00000000
 C     81.69585392     52.05382018      0.00000000
 C     82.32222835     53.46068018      0.00000000
 C     83.86222835     53.46068018      0.00000000
 C     84.48860278     54.86754019      0.00000000
 C     86.02860278     54.86754019      0.00000000
 C     86.65497721     56.27440019      0.00000000
 C     88.19497721     56.27440019      0.00000000
 C     88.82135164     57.68126020      0.00000000
 C     90.36135164     57.68126020      0.00000000
 C     90.98772607     59.08812020      0.00000000
 C     92.52772607     59.08812020      0.00000000
 C     93.15410050     60.49498021      0.00000000
 C     94.69410050     60.49498021      0.00000000
 C     95.32047493     61.90184021      0.00000000
 C     96.86047493     61.90184021      0.00000000
 C     97.48684937     63.30870021      0.00000000
 C     99.02684937     63.30870021      0.00000000
 C     99.65322380     64.71556022      0.00000000
 C    101.19322380     64.71556022      0.00000000
 C    101.81959823     66.12242022      0.00000000
 C    103.35959823     66.12242022      0.00000000
 C    103.98597266     67.52928023      0.00000000
 C    105.52597266     67.52928023      0.00000000
 C    106.15234709     68.93614023      0.00000000
 C    107.69234709     68.93614023      0.00000000
 C    108.31872152     70.34300024      0.00000000
 C    109.85872152     70.34300024      0.00000000
 C    110.48509595     71.74986024      0.00000000
 C    112.02509595     71.74986024      0.00000000
 C    112.65147038     73.15672025      0.00000000
 C    114.19147038     73.15672025      0.00000000
 C    114.81784481     74.56358025      0.00000000
 C    116.35784481     74.56358025      0.00000000
 C    116.98421924     75.97044026      0.00000000
 C    118.52421924     75.97044026      0.00000000
 C    119.15059367     77.37730026      0.00000000
 C    120.69059367     77.37730026      0.00000000
 C    121.31696810     78.78416027      0.00000000
 C    122.85696810     78.78416027      0.00000000
 C    123.48334253     80.19102027      0.00000000
 C    125.02334253     80.19102027      0.00000000
 C    125.64971696     81.59788028      0.00000000
 C    127.18971696     81.59788028      0.00000000
 C    127.81609139     83.00474028      0.00000000
 C    129.35609139     83.00474028      0.00000000
 C    129.98246582     84.41160029      0.00000000
 C    131.52246582     84.41160029      0.00000000
 C    132.14884025     85.81846029      0.00000000
 C    133.68884025     85.81846029      0.00000000
 C    134.31521468     87.22532030      0.00000000
 C    135.85521468     87.22532030      0.00000000
 C    136.48158911     88.63218030      0.00000000
 C    138.02158911     88.63218030      0.00000000
 C    138.64796354     90.03904031      0.00000000
 C    140.18796354     90.03904031      0.00000000
 C    140.81433797     91.44590031      0.00000000
 C    142.35433797     91.44590031      0.00000000
 C    142.98071240     92.85276031      0.00000000
 C    144.52071240     92.85276031      0.00000000
 C    145.14708683     94.25962032      0.00000000
 C    146.68708683     94.25962032      0.00000000
 C    147.31346126     95.66648032      0.00000000
 C    148.85346126     95.66648032      0.00000000
 C    149.47983569     97.07334033      0.00000000
 C    151.01983569     97.07334033      0.00000000
 C    151.64621012     98.48020033      0.00000000
 C    153.18621012     98.48020033      0.00000000
 C    153.81258455     99.88706034      0.00000000
 C    155.35258455     99.88706034      0.00000000
 C    155.97895898    101.29392034      0.00000000
 C    157.51895898    101.29392034      0.00000000
 C    158.14533341    102.70078035      0.00000000
 C    159.68533341    102.70078035      0.00000000
 C    160.31170784    104.10764035      0.00000000
 C    161.85170784    104.10764035      0.00000000
 C    162.47808228    105.51450036      0.00000000
 C    164.01808228    105.51450036      0.00000000
 C    164.64445671    106.92136036      0.00000000
 C    166.18445671    106.92136036      0.00000000
 C    166.81083114    108.32822037      0.00000000
 C    168.35083114    108.32822037      0.00000000
 C    168.97720557    109.73508037      0.00000000
 C    170.51720557    109.73508037      0.00000000
 C    171.14358000    111.14194038      0.00000000
 C    172.68358000    111.14194038      0.00000000
 C    173.30995443    112.54880038      0.00000000
 C    174.84995443    112.54880038      0.00000000
 C    175.47632886    113.95566039      0.00000000
 C    177.01632886    113.95566039      0.00000000
 C    177.64270329    115.36252039      0.00000000
 C    179.18270329    115.36252039      0.00000000
 C    179.80907772    116.76938040      0.00000000
 C    181.34907772    116.76938040      0.00000000
 C    181.97545215    118.17624040      0.00000000
 C    183.51545215    118.17624040      0.00000000
 C    184.14182658    119.58310041      0.00000000
 C    185.68182658    119.58310041      0.00000000
 C    186.30820101    120.98996041      0.00000000
 C    187.84820101    120.98996041      0.00000000
 C    188.47457544    122.39682041      0.00000000
 C    190.01457544    122.39682041      0.00000000
 C    190.64094987    123.80368042      0.00000000
 C    192.18094987    123.80368042      0.00000000
 C    192.80732430    125.21054042      0.00000000
 C    194.34732430    125.21054042      0.00000000
 C    194.97369873    126.61740043      0.00000000
 C    196.51369873    126.61740043      0.00000000
 C    197.14007316    128.02426043      0.00000000
 C    198.68007316    128.02426043      0.00000000
 C    199.30644759    129.43112044      0.00000000
 C    200.84644759    129.43112044      0.00000000
 C    201.47282202    130.83798044      0.00000000
 C    203.01282202    130.83798044      0.00000000
 C    203.63919645    132.24484045      0.00000000
 C    205.17919645    132.24484045      0.00000000
 C    205.80557088    133.65170045      0.00000000
 C    207.34557088    133.65170045      0.00000000
 C    207.97194531    135.05856046      0.00000000
 C    209.51194531    135.05856046      0.00000000
 C    210.13831974    136.46542046      0.00000000
 C    211.67831974    136.46542046      0.00000000
 C    212.30469417    137.87228047      0.00000000
 C    213.84469417    137.87228047      0.00000000
 C    214.47106860    139.27914047      0.00000000
 C    216.01106860    139.27914047      0.00000000
 H     -0.36333333      0.00000000      1.02766186
 H     -0.36333333     -0.88998127     -0.51383093
 H     -0.36333333      0.88998127     -0.51383093
 H      1.88274777     -0.52778528     -0.88998127
 H      1.88274777     -0.52778528      0.88998127
 H      1.82362666      1.93464528      0.88998127
 H      1.82362666      1.93464528     -0.88998127
 H      4.04912220      0.87907473     -0.88998127
 H      4.04912220      0.87907473      0.88998127
 H      3.99000109      3.34150529      0.88998127
 H      3.99000109      3.34150529     -0.88998127
 H      6.21549663      2.28593473     -0.88998127
 H      6.21549663      2.28593473      0.88998127
 H      6.15637552      4.74836529      0.88998127
 H      6.15637552      4.74836529     -0.88998127
 H      8.38187106      3.69279473     -0.88998127
 H      8.38187106      3.69279473      0.88998127
 H      8.32274995      6.15522530      0.88998127
 H      8.32274995      6.15522530     -0.88998127
 H     10.54824549      5.09965474     -0.88998127
 H     10.54824549      5.09965474      0.88998127
 H     10.48912438      7.56208530      0.88998127
 H     10.48912438      7.56208530     -0.88998127
 H     12.71461992      6.50651474     -0.88998127
 H     12.71461992      6.50651474      0.88998127
 H     12.65549881      8.96894531      0.88998127
 H     12.65549881      8.96894531     -0.88998127
 H     14.88099435      7.91337475     -0.88998127
 H     14.88099435      7.91337475      0.88998127
 H     14.82187324     10.37580531      0.88998127
 H     14.82187324     10.37580531     -0.88998127
 H     17.04736878      9.32023475     -0.88998127
 H     17.04736878      9.32023475      0.88998127
 H     16.98824767     11.78266532      0.88998127
 H     16.98824767     11.78266532     -0.88998127
 H     19.21374321     10.72709476     -0.88998127
 H     19.21374321     10.72709476      0.88998127
 H     19.15462210     13.18952532      0.88998127
 H     19.15462210     13.18952532     -0.88998127
 H     21.38011764     12.13395476     -0.88998127
 H     21.38011764     12.13395476      0.88998127
 H     21.32099654     14.59638533      0.88998127
 H     21.32099654     14.59638533     -0.88998127
 H     23.54649207     13.54081477     -0.88998127
 H     23.54649207     13.54081477      0.88998127
 H     23.48737097     16.00324533      0.88998127
 H     23.48737097     16.00324533     -0.88998127
 H     25.71286650     14.94767477     -0.88998127
 H     25.71286650     14.94767477      0.88998127
 H     25.65374540     17.41010534      0.88998127
 H     25.65374540     17.41010534     -0.88998127
 H     27.87924093     16.35453478     -0.88998127
 H     27.87924093     16.35453478      0.88998127
 H     27.82011983     18.81696534      0.88998127
 H     27.82011983     18.81696534     -0.88998127
 H     30.04561536     17.76139478     -0.88998127
 H     30.04561536     17.76139478      0.88998127
 H     29.98649426     20.22382535      0.88998127
 H     29.98649426     20.22382535     -0.88998127
 H     32.21198979     19.16825479     -0.88998127
 H     32.21198979     19.16825479      0.88998127
 H     32.15286869     21.63068535      0.88998127
 H     32.15286869     21.63068535     -0.88998127
 H     34.37836422     20.57511479     -0.88998127
 H     34.37836422     20.57511479      0.88998127
 H     34.31924312     23.03754536      0.88998127
 H     34.31924312     23.03754536     -0.88998127
 H     36.54473865     21.98197480     -0.88998127
 H     36.54473865     21.98197480      0.88998127
 H     36.48561755     24.44440536      0.88998127
 H     36.48561755     24.44440536     -0.88998127
 H     38.71111308     23.38883480     -0.88998127
 H     38.71111308     23.38883480      0.88998127
 H     38.65199198     25.85126537      0.88998127
 H     38.65199198     25.85126537     -0.88998127
 H     40.87748751     24.79569481     -0.88998127
 H     40.87748751     24.79569481      0.88998127
 H     40.81836641     27.25812537      0.88998127
 H     40.81836641     27.25812537     -0.88998127
 H     43.04386194     26.20255481     -0.88998127
 H     43.04386194     26.20255481      0.88998127
 H     42.98474084     28.66498537      0.88998127
 H     42.98474084     28.66498537     -0.88998127
 H     45.21023637     27.60941482     -0.88998127
 H     45.21023637     27.60941482      0.88998127
 H     45.15111527     30.07184538      0.88998127
 H     45.15111527     30.07184538     -0.88998127
 H     47.37661081     29.01627482     -0.88998127
 H     47.37661081     29.01627482      0.88998127
 H     47.31748970     31.47870538      0.88998127
 H     47.31748970     31.47870538     -0.88998127
 H     49.54298524     30.42313483     -0.88998127
 H     49.54298524     30.42313483      0.88998127
 H     49.48386413     32.88556539      0.88998127
 H     49.48386413     32.88556539     -0.88998127
 H     51.70935967     31.82999483     -0.88998127
 H     51.70935967     31.82999483      0.88998127
 H     51.65023856     34.29242539      0.88998127
 H     51.65023856     34.29242539     -0.88998127
 H     53.87573410     33.23685484     -0.88998127
 H     53.87573410     33.23685484      0.88998127
 H     53.81661299     35.69928540      0.88998127
 H     53.81661299     35.69928540     -0.88998127
 H     56.04210853     34.64371484     -0.88998127
 H     56.04210853     34.64371484      0.88998127
 H     55.98298742     37.10614540      0.88998127
 H     55.98298742     37.10614540     -0.88998127
 H     58.20848296     36.05057484     -0.88998127
 H     58.20848296     36.05057484      0.88998127
 H     58.14936185     38.51300541      0.88998127
 H     58.14936185     38.51300541     -0.88998127
 H     60.37485739     37.45743485     -0.88998127
 H     60.37485739     37.45743485      0.88998127
 H     60.31573628     39.91986541      0.88998127
 H     60.31573628     39.91986541     -0.88998127
 H     62.54123182     38.86429485     -0.88998127
 H     62.54123182     38.86429485      0.88998127
 H     62.48211071     41.32672542      0.88998127
 H     62.48211071     41.32672542     -0.88998127
 H     64.70760625     40.27115486     -0.88998127
 H     64.70760625     40.27115486      0.88998127
 H     64.64848514     42.73358542      0.88998127
 H     64.64848514     42.73358542     -0.88998127
 H     66.87398068     41.67801486     -0.88998127
 H     66.87398068     41.67801486      0.88998127
 H     66.81485957     44.14044543      0.88998127
 H     66.81485957     44.14044543     -0.88998127
 H     69.04035511     43.08487487     -0.88998127
 H     69.04035511     43.08487487      0.88998127
 H     68.98123400     45.54730543      0.88998127
 H     68.98123400     45.54730543     -0.88998127
 H     71.20672954     44.49173487     -0.88998127
 H     71.20672954     44.49173487      0.88998127
 H     71.14760843     46.95416544      0.88998127
 H     71.14760843     46.95416544     -0.88998127
 H     73.37310397     45.89859488     -0.88998127
 H     73.37310397     45.89859488      0.88998127
 H     73.31398286     48.36102544      0.88998127
 H     73.31398286     48.36102544     -0.88998127
 H     75.53947840     47.30545488     -0.88998127
 H     75.53947840     47.30545488      0.88998127
 H     75.48035729     49.76788545      0.88998127
 H     75.48035729     49.76788545     -0.88998127
 H     77.70585283     48.71231489     -0.88998127
 H     77.70585283     48.71231489      0.88998127
 H     77.64673172     51.17474545      0.88998127
 H     77.64673172     51.17474545     -0.88998127
 H     79.87222726     50.11917489     -0.88998127
 H     79.87222726     50.11917489      0.88998127
 H     79.81310615     52.58160546      0.88998127
 H     79.81310615     52.58160546     -0.88998127
 H     82.03860169     51.52603490     -0.88998127
 H     82.03860169     51.52603490      0.88998127
 H     81.97948058     53.98846546      0.88998127
 H     81.97948058     53.98846546     -0.88998127
 H     84.20497612     52.93289490     -0.88998127
 H     84.20497612     52.93289490      0.88998127
 H     84.14585502     55.39532547      0.88998127
 H     84.14585502     55.39532547     -0.88998127
 H     86.37135055     54.33975491     -0.88998127
 H     86.37135055     54.33975491      0.88998127
 H     86.31222945     56.80218547      0.88998127
 H     86.31222945     56.80218547     -0.88998127
 H     88.53772498     55.74661491     -0.88998127
 H     88.53772498     55.74661491      0.88998127
 H     88.47860388     58.20904547      0.88998127
 H     88.47860388     58.20904547     -0.88998127
 H     90.70409941     57.15347492     -0.88998127
 H     90.70409941     57.15347492      0.88998127
 H     90.64497831     59.61590548      0.88998127
 H     90.64497831     59.61590548     -0.88998127
 H     92.87047384     58.56033492     -0.88998127
 H     92.87047384     58.56033492      0.88998127
 H     92.81135274     61.02276548      0.88998127
 H     92.81135274     61.02276548     -0.88998127
 H     95.03684827     59.96719493     -0.88998127
 H     95.03684827     59.96719493      0.88998127
 H     94.97772717     62.42962549      0.88998127
 H     94.97772717     62.42962549     -0.88998127
 H     97.20322270     61.37405493     -0.88998127
 H     97.20322270     61.37405493      0.88998127
 H     97.14410160     63.83648549      0.88998127
 H     97.14410160     63.83648549     -0.88998127
 H     99.36959713     62.78091494     -0.88998127
 H     99.36959713     62.78091494      0.88998127
 H     99.31047603     65.24334550      0.88998127
 H     99.31047603     65.24334550     -0.88998127
 H    101.53597156     64.18777494     -0.88998127
 H    101.53597156     64.18777494      0.88998127
 H    101.47685046     66.65020550      0.88998127
 H    101.47685046     66.65020550     -0.88998127
 H    103.70234599     65.59463494     -0.88998127
 H    103.70234599     65.59463494      0.88998127
 H    103.64322489     68.05706551      0.88998127
 H    103.64322489     68.05706551     -0.88998127
 H    105.86872042     67.00149495     -0.88998127
 H    105.86872042     67.00149495      0.88998127
 H    105.80959932     69.46392551      0.88998127
 H    105.80959932     69.46392551     -0.88998127
 H    108.03509485     68.40835495     -0.88998127
 H    108.03509485     68.40835495      0.88998127
 H    107.97597375     70.87078552      0.88998127
 H    107.97597375     70.87078552     -0.88998127
 H    110.20146928     69.81521496     -0.88998127
 H    110.20146928     69.81521496      0.88998127
 H    110.14234818     72.27764552      0.88998127
 H    110.14234818     72.27764552     -0.88998127
 H    112.36784372     71.22207496     -0.88998127
 H    112.36784372     71.22207496      0.88998127
 H    112.30872261     73.68450553      0.88998127
 H    112.30872261     73.68450553     -0.88998127
 H    114.53421815     72.62893497     -0.88998127
 H    114.53421815     72.62893497      0.88998127
 H    114.47509704     75.09136553      0.88998127
 H    114.47509704     75.09136553     -0.88998127
 H    116.70059258     74.03579497     -0.88998127
 H    116.70059258     74.03579497      0.88998127
 H    116.64147147     76.49822554      0.88998127
 H    116.64147147     76.49822554     -0.88998127
 H    118.86696701     75.44265498     -0.88998127
 H    118.86696701     75.44265498      0.88998127
 H    118.80784590     77.90508554      0.88998127
 H    118.80784590     77.90508554     -0.88998127
 H    121.03334144     76.84951498     -0.88998127
 H    121.03334144     76.84951498      0.88998127
 H    120.97422033     79.31194555      0.88998127
 H    120.97422033     79.31194555     -0.88998127
 H    123.19971587     78.25637499     -0.88998127
 H    123.19971587     78.25637499      0.88998127
 H    123.14059476     80.71880555      0.88998127
 H    123.14059476     80.71880555     -0.88998127
 H    125.36609030     79.66323499     -0.88998127
 H    125.36609030     79.66323499      0.88998127
 H    125.30696919     82.12566556      0.88998127
 H    125.30696919     82.12566556     -0.88998127
 H    127.53246473     81.07009500     -0.88998127
 H    127.53246473     81.07009500      0.88998127
 H    127.47334362     83.53252556      0.88998127
 H    127.47334362     83.53252556     -0.88998127
 H    129.69883916     82.47695500     -0.88998127
 H    129.69883916     82.47695500      0.88998127
 H    129.63971805     84.93938557      0.88998127
 H    129.63971805     84.93938557     -0.88998127
 H    131.86521359     83.88381501     -0.88998127
 H    131.86521359     83.88381501      0.88998127
 H    131.80609248     86.34624557      0.88998127
 H    131.80609248     86.34624557     -0.88998127
 H    134.03158802     85.29067501     -0.88998127
 H    134.03158802     85.29067501      0.88998127
 H    133.97246691     87.75310558      0.88998127
 H    133.97246691     87.75310558     -0.88998127
 H    136.19796245     86.69753502     -0.88998127
 H    136.19796245     86.69753502      0.88998127
 H    136.13884134     89.15996558      0.88998127
 H    136.13884134     89.15996558     -0.88998127
 H    138.36433688     88.10439502     -0.88998127
 H    138.36433688     88.10439502      0.88998127
 H    138.30521577     90.56682558      0.88998127
 H    138.30521577     90.56682558     -0.88998127
 H    140.53071131     89.51125503     -0.88998127
 H    140.53071131     89.51125503      0.88998127
 H    140.47159020     91.97368559      0.88998127
 H    140.47159020     91.97368559     -0.88998127
 H    142.69708574     90.91811503     -0.88998127
 H    142.69708574     90.91811503      0.88998127
 H    142.63796463     93.38054559      0.88998127
 H    142.63796463     93.38054559     -0.88998127
 H    144.86346017     92.32497504     -0.88998127
 H    144.86346017     92.32497504      0.88998127
 H    144.80433906     94.78740560      0.88998127
 H    144.80433906     94.78740560     -0.88998127
 H    147.02983460     93.73183504     -0.88998127
 H    147.02983460     93.73183504      0.88998127
 H    146.97071349     96.19426560      0.88998127
 H    146.97071349     96.19426560     -0.88998127
 H    149.19620903     95.13869504     -0.88998127
 H    149.19620903     95.13869504      0.88998127
 H    149.13708793     97.60112561      0.88998127
 H    149.13708793     97.60112561     -0.88998127
 H    151.36258346     96.54555505     -0.88998127
 H    151.36258346     96.54555505      0.88998127
 H    151.30346236     99.00798561      0.88998127
 H    151.30346236     99.00798561     -0.88998127
 H    153.52895789     97.95241505     -0.88998127
 H    153.52895789     97.95241505      0.88998127
 H    153.46983679    100.41484562      0.88998127
 H    153.46983679    100.41484562     -0.88998127
 H    155.69533232     99.35927506     -0.88998127
 H    155.69533232     99.35927506      0.88998127
 H    155.63621122    101.82170562      0.88998127
 H    155.63621122    101.82170562     -0.88998127
 H    157.86170675    100.76613506     -0.88998127
 H    157.86170675    100.76613506      0.88998127
 H    157.80258565    103.22856563      0.88998127
 H    157.80258565    103.22856563     -0.88998127
 H    160.02808118    102.17299507     -0.88998127
 H    160.02808118    102.17299507      0.88998127
 H    159.96896008    104.63542563      0.88998127
 H    159.96896008    104.63542563     -0.88998127
 H    162.19445561    103.57985507     -0.88998127
 H    162.19445561    103.57985507      0.88998127
 H    162.13533451    106.04228564      0.88998127
 H    162.13533451    106.04228564     -0.88998127
 H    164.36083004    104.98671508     -0.88998127
 H    164.36083004    104.98671508      0.88998127
 H    164.30170894    107.44914564      0.88998127
 H    164.30170894    107.44914564     -0.88998127
 H    166.52720447    106.39357508     -0.88998127
 H    166.52720447    106.39357508      0.88998127
 H    166.46808337    108.85600565      0.88998127
 H    166.46808337    108.85600565     -0.88998127
 H    168.69357890    107.80043509     -0.88998127
 H    168.69357890    107.80043509      0.88998127
 H    168.63445780    110.26286565      0.88998127
 H    168.63445780    110.26286565     -0.88998127
 H    170.85995333    109.20729509     -0.88998127
 H    170.85995333    109.20729509      0.88998127
 H    170.80083223    111.66972566      0.88998127
 H    170.80083223    111.66972566     -0.88998127
 H    173.02632776    110.61415510     -0.88998127
 H    173.02632776    110.61415510      0.88998127
 H    172.96720666    113.07658566      0.88998127
 H    172.96720666    113.07658566     -0.88998127
 H    175.19270219    112.02101510     -0.88998127
 H    175.19270219    112.02101510      0.88998127
 H    175.13358109    114.48344567      0.88998127
 H    175.13358109    114.48344567     -0.88998127
 H    177.35907663    113.42787511     -0.88998127
 H    177.35907663    113.42787511      0.88998127
 H    177.29995552    115.89030567      0.88998127
 H    177.29995552    115.89030567     -0.88998127
 H    179.52545106    114.83473511     -0.88998127
 H    179.52545106    114.83473511      0.88998127
 H    179.46632995    117.29716568      0.88998127
 H    179.46632995    117.29716568     -0.88998127
 H    181.69182549    116.24159512     -0.88998127
 H    181.69182549    116.24159512      0.88998127
 H    181.63270438    118.70402568      0.88998127
 H    181.63270438    118.70402568     -0.88998127
 H    183.85819992    117.64845512     -0.88998127
 H    183.85819992    117.64845512      0.88998127
 H    183.79907881    120.11088568      0.88998127
 H    183.79907881    120.11088568     -0.88998127
 H    186.02457435    119.05531513     -0.88998127
 H    186.02457435    119.05531513      0.88998127
 H    185.96545324    121.51774569      0.88998127
 H    185.96545324    121.51774569     -0.88998127
 H    188.19094878    120.46217513     -0.88998127
 H    188.19094878    120.46217513      0.88998127
 H    188.13182767    122.92460569      0.88998127
 H    188.13182767    122.92460569     -0.88998127
 H    190.35732321    121.86903514     -0.88998127
 H    190.35732321    121.86903514      0.88998127
 H    190.29820210    124.33146570      0.88998127
 H    190.29820210    124.33146570     -0.88998127
 H    192.52369764    123.27589514     -0.88998127
 H    192.52369764    123.27589514      0.88998127
 H    192.46457653    125.73832570      0.88998127
 H    192.46457653    125.73832570     -0.88998127
 H    194.69007207    124.68275515     -0.88998127
 H    194.69007207    124.68275515      0.88998127
 H    194.63095096    127.14518571      0.88998127
 H    194.63095096    127.14518571     -0.88998127
 H    196.85644650    126.08961515     -0.88998127
 H    196.85644650    126.08961515      0.88998127
 H    196.79732539    128.55204571      0.88998127
 H    196.79732539    128.55204571     -0.88998127
 H    199.02282093    127.49647515     -0.88998127
 H    199.02282093    127.49647515      0.88998127
 H    198.96369982    129.95890572      0.88998127
 H    198.96369982    129.95890572     -0.88998127
 H    201.18919536    128.90333516     -0.88998127
 H    201.18919536    128.90333516      0.88998127
 H    201.13007425    131.36576572      0.88998127
 H    201.13007425    131.36576572     -0.88998127
 H    203.35556979    130.31019516     -0.88998127
 H    203.35556979    130.31019516      0.88998127
 H    203.29644868    132.77262573      0.88998127
 H    203.29644868    132.77262573     -0.88998127
 H    205.52194422    131.71705517     -0.88998127
 H    205.52194422    131.71705517      0.88998127
 H    205.46282311    134.17948573      0.88998127
 H    205.46282311    134.17948573     -0.88998127
 H    207.68831865    133.12391517     -0.88998127
 H    207.68831865    133.12391517      0.88998127
 H    207.62919754    135.58634574      0.88998127
 H    207.62919754    135.58634574     -0.88998127