152
Step 1 E=        -0.8821
 C      0.00000000      0.00000000      0.00000000
 C      1.54000000      0.00000000      0.00000000
 C      2.16637443      1.40686000      0.00000000
 C      3.70637443      1.40686000      0.00000000
 C      4.33274886      2.81372001      0.00000000
 C      5.87274886      2.81372001      0.00000000
 C      6.49912329      4.22058001      0.00000000
 C      8.03912329      4.22058001      0.00000000
 C      8.66549772      5.62744002      0.00000000
 C     10.20549772      5.62744002      0.00000000
 C     10.83187215      7.03430002      0.00000000
 C     12.37187215      7.03430002      0.00000000
 C     12.99824658      8.44116003      0.00000000
 C     14.53824658      8.44116003      0.00000000
 C     15.16462101      9.80766904     -0.33452684
 C     16.68368640      9.87685529     -0.09110620
 C     17.31006083     11.24336430     -0.42563304
 C     18.78861071     11.37214170     -0.01465049
 C     19.41498514     12.73865071     -0.34917733
 C     20.94749439     12.77795501     -0.20264895
 C     21.57386882     14.14446402     -0.53717579
 C     23.10637807     14.18376833     -0.39064741
 C     23.70153118     15.60394145     -0.41303178
 C     25.23404043     15.64324576     -0.26650340
 C     25.82919354     17.06341889     -0.28888777
 C     27.36170280     17.10272319     -0.14235940
 C     27.95685591     18.52289632     -0.16474376
 C     29.48936516     18.56220063     -0.01821539
 C     30.08451827     19.98237375     -0.04059976
 C     31.61702752     20.02167806      0.10592862
 C     32.21218063     21.44185119      0.08354425
 C     33.74468989     21.48115549      0.23007263
 C     34.33984300     22.90132862      0.20768826
 C     35.87235225     22.94063293      0.35421663
 C     36.46750536     24.36080605      0.33183227
 C     38.00001461     24.40011036      0.47836064
 C     38.59516772     25.82028349      0.45597627
 C     40.12767698     25.85958779      0.60250465
 C     40.72283009     27.27976092      0.58012028
 C     42.25533934     27.31906523      0.72664866
 C     42.85049245     28.73923835      0.70426429
 C     44.38300170     28.77854266      0.85079266
 C     44.97815481     30.19871579      0.82840830
 C     46.51066407     30.23802009      0.97493667
 C     47.10581718     31.65819322      0.95255230
 C     48.63832643     31.69749753      1.09908068
 C     49.23347954     33.11767065      1.07669631
 C     50.76598879     33.15697496      1.22322469
 C     51.35723302     34.57884158      1.24126828
 C     52.89492926     34.61878913      1.16714359
 H     -0.36333333      0.00000000      1.02766186
 H     -0.36333333     -0.88998127     -0.51383093
 H     -0.36333333      0.88998127     -0.51383093
 H      1.88274777     -0.52778528     -0.88998127
 H      1.88274777     -0.52778528      0.88998127
 H      1.82362666      1.93464528      0.88998127
 H      1.82362666      1.93464528     -0.88998127
 H      4.04912220      0.87907473     -0.88998127
 H      4.04912220      0.87907473      0.88998127
 H      3.99000109      3.34150529      0.88998127
 H      3.99000109      3.34150529     -0.88998127
 H      6.21549663      2.28593473     -0.88998127
 H      6.21549663      2.28593473      0.88998127
 H      6.15637552      4.74836529      0.88998127
 H      6.15637552      4.74836529     -0.88998127
 H      8.38187106      3.69279473     -0.88998127
 H      8.38187106      3.69279473      0.88998127
 H      8.32274995      6.15522530      0.88998127
 H      8.32274995      6.15522530     -0.88998127
 H     10.54824549      5.09965474     -0.88998127
 H     10.54824549      5.09965474      0.88998127
 H     10.48912438      7.56208530      0.88998127
 H     10.48912438      7.56208530     -0.88998127
 H     12.71461992      6.50651474     -0.88998127
 H     12.71461992      6.50651474      0.88998127
 H     12.65549881      8.96894531      0.88998127
 H     12.65549881      8.96894531     -0.88998127
 H     14.88099435      7.71689041     -0.73895703
 H     14.88099435      8.14013454      0.98995334
 H     14.68357912     10.56573921      0.28355755
 H     14.97587466     10.02298335     -1.38624665
 H     17.16472829      9.11878512     -0.70919059
 H     16.87243276      9.66154097      0.96061361
 H     16.74197126     12.01662529      0.09151460
 H     17.23876105     11.39877641     -1.50213823
 H     19.35670027     10.59888071     -0.53179813
 H     18.85991049     11.21672959      1.06185469
 H     18.98739502     13.48484797      0.32049150
 H     19.16270005     12.98825844     -1.37978308
 H     21.37508451     12.03175776     -0.87231778
 H     21.19977948     12.52834728      0.82795680
 H     21.14627870     14.89066128      0.13249304
 H     21.32158373     14.39407175     -1.56778154
 H     23.54387133     13.61581936     -1.21170381
 H     23.37218545     13.71564799      0.55714465
 H     23.26403792     16.17189042      0.40802462
 H     23.43572380     16.07206180     -1.36082383
 H     25.67153369     15.07529679     -1.08755981
 H     25.49984782     15.17512542      0.68128865
 H     25.39170029     17.63136786      0.53216863
 H     25.56338616     17.53153923     -1.23667983
 H     27.79919605     16.53477422     -0.96341580
 H     27.62751018     16.63460285      0.80543266
 H     27.51936265     19.09084529      0.65631264
 H     27.69104852     18.99101666     -1.11253582
 H     29.92685842     17.99425166     -0.83927179
 H     29.75517254     18.09408029      0.92957667
 H     29.64702501     20.55032272      0.78045665
 H     29.81871089     20.45049409     -0.98839181
 H     32.05452078     19.45372909     -0.71512778
 H     31.88283491     19.55355772      1.05372068
 H     31.77468738     22.00980016      0.90460065
 H     31.94637325     21.90997153     -0.86424780
 H     34.18218314     20.91320652     -0.59098378
 H     34.01049727     21.01303515      1.17786468
 H     33.90234974     23.46927759      1.02874466
 H     34.07403561     23.36944896     -0.74010380
 H     36.30984551     22.37268396     -0.46683977
 H     36.13815963     22.47251259      1.30200869
 H     36.03001210     24.92875502      1.15288867
 H     36.20169798     24.82892639     -0.61595979
 H     38.43750787     23.83216139     -0.34269576
 H     38.26582200     23.93199002      1.42615270
 H     38.15767447     26.38823246      1.27703268
 H     38.32936034     26.28840383     -0.49181578
 H     40.56517023     25.29163882     -0.21855175
 H     40.39348436     25.39146745      1.55029670
 H     40.28533683     27.84770989      1.40117668
 H     40.45702270     27.74788126     -0.36767178
 H     42.69283260     26.75111626     -0.09440775
 H     42.52114672     26.85094489      1.67444071
 H     42.41299919     29.30718732      1.52532069
 H     42.58468507     29.20735869     -0.24352777
 H     44.82049496     28.21059369      0.02973626
 H     44.64880909     28.31042232      1.79858472
 H     44.54066156     30.76666476      1.64946470
 H     44.71234743     30.66683613     -0.11938376
 H     46.94815732     29.67007112      0.15388027
 H     46.77647145     29.76989975      1.92272873
 H     46.66832392     32.22614219      1.77360871
 H     46.84000979     32.12631356      0.00476025
 H     49.07581969     31.12954856      0.27802428
 H     48.90413382     31.22937719      2.04687273
 H     48.79598628     33.68561962      1.89775271
 H     48.96767216     33.58579099      0.12890425
 H     51.20439768     32.61407633      0.38587248
 H     51.03381340     32.66253365      2.15697935
 H     51.04576078     35.06787016      2.16427212
 H     50.95857995     35.12667032      0.38741852
 H     53.20823805     34.62821398      0.12318537
 H     53.30551887     33.73853218      1.66177869
 H     53.25940026     35.51789578      1.66400184
152
Step 10000 E=        19.4366
 C      0.00000000      0.00000000      0.00000000
 C      1.54000000      0.00000000      0.00000000
 C      2.16637443      1.07434303     -0.90831830
 C      3.70510176      1.03436341     -0.95648312
 C      4.31677161      1.84403900     -2.11488091
 C      5.85134385      1.95936959     -2.05668387
 C      6.38431235      2.57121527     -0.74779524
 C      7.88653527      2.90866536     -0.78025656
 C      8.53428488      3.01762199      0.61263571
 C     10.06274192      3.20294808      0.57987414
 C     10.72359807      3.20347467      1.97086978
 C     12.12850955      3.83368086      1.99663576
 C     13.01438068      3.43835575      0.80057957
 C     14.25036251      4.33752744      0.61232658
 C     14.92538156      4.19420690     -0.76441178
 C     16.19306966      5.05222812     -0.93283526
 C     16.03653263      6.21102562     -1.93497523
 C     17.03359919      7.36468541     -1.71927321
 C     16.54454960      8.72349286     -2.25413096
 C     15.19717935      9.18045573     -1.66474285
 C     15.32577579     10.24550799     -0.55987785
 C     13.98913499     10.89710038     -0.15935479
 C     13.58251486     10.64374197      1.30422630
 C     13.14728861      9.19473502      1.59155358
 C     12.58799515      8.97828033      3.00998165
 C     12.03121618      7.56344405      3.25459457
 C     11.21754805      7.42667368      4.55491685
 C     10.56347501      6.04510463      4.74214776
 C     10.15683231      5.73631321      6.19503784
 C      9.60739025      4.31271829      6.40262142
 C      8.30781750      4.02382308      5.62850888
 C      8.06642499      2.52944887      5.34535634
 C      7.04548617      2.26133676      4.22401794
 C      6.87759688      0.77132696      3.87289978
 C      5.73742061      0.48696278      2.87754302
 C      5.81285428     -0.90316164      2.21916330
 C      7.23445641     -1.32138287      1.79995168
 C      7.27767296     -2.25118892      0.57308859
 C      7.09430611     -1.52305090     -0.77145283
 C      7.17059668     -2.44813788     -2.00027089
 C      7.04240686     -1.71243234     -3.34708370
 C      7.62210976     -0.28572937     -3.33913558
 C      9.05773556     -0.18988346     -3.88812750
 C      9.52222764      1.24923832     -4.17929001
 C     11.01770141      1.36633257     -4.52778267
 C     11.49234537      2.81058276     -4.77365768
 C     11.34422477      3.73529114     -3.55112968
 C     11.65237159      5.21539241     -3.84429477
 C     11.42261117      6.15266304     -2.64415565
 C     11.64566789      7.64299069     -2.96159728
 H     -0.36333333      0.00000000      1.02766186
 H     -0.36333333     -0.88998127     -0.51383093
 H     -0.36333333      0.88998127     -0.51383093
 H      1.88274777      0.11083297     -1.02875654
 H      1.88274777      1.01924812     -0.17820561
 H      3.01095050      1.51857270     -0.38158187
 H      1.82362666      0.90278094     -1.92870568
 H      4.01345090      0.95545426     -1.99897732
 H      4.08354526      1.17805933      0.05556035
 H      4.00402856      2.88288442     -2.00956241
 H      5.23574005      1.35011275     -2.43052921
 H      6.10837048      2.77512317     -1.38097431
 H      6.10609871      2.89791872     -1.56441820
 H      6.05594182      1.94513861      0.08184372
 H      5.96117710      3.56982843     -0.63903719
 H      8.06055845      3.62052541     -1.58714640
 H      8.32290384      2.62231610      0.17665857
 H      8.40826062      2.06373472      1.12480459
 H      8.01919570      3.80007005      1.16991318
 H     10.28563565      4.11485616      0.02594091
 H     10.50064517      2.34834018      0.06413574
 H     10.50401767      2.25190335      2.45501487
 H     10.29221538      4.01639046      2.55497326
 H     12.04755291      4.86566815      1.65524411
 H     12.31597789      4.29299494      1.02607602
 H     12.51421588      3.75325800     -0.11526526
 H     13.12510821      2.35399483      0.79968818
 H     14.72038892      4.48211945      1.58508982
 H     13.91805679      5.29976319      0.22274312
 H     14.15573882      4.26739861     -1.53278215
 H     15.39666079      3.21263578     -0.81455188
 H     16.91056818      4.75765997     -0.16698574
 H     15.92172648      5.96377182     -1.46533968
 H     16.71215387      7.01360634     -1.63917101
 H     15.90708955      5.78765195     -2.93101701
 H     18.04396598      6.96617668     -1.81119567
 H     16.88878404      7.75933932     -0.71360086
 H     15.51063822      8.61134281     -2.58055037
 H     16.16571203      8.57742537     -3.26568738
 H     15.30455737      9.25656002     -0.58271785
 H     14.44580121      8.42769522     -1.90324337
 H     15.82902349     11.11628043     -0.98011241
 H     15.92994955      9.83098651      0.24712029
 H     13.38947069     10.15396772      0.36624637
 H     13.45167065     11.16397177     -1.06930629
 H     12.58135297     10.21279821      1.31212183
 H     12.71830562      9.97950445      1.30978563
 H     13.97781071      8.53251638      1.34701419
 H     12.29530327      8.95985559      0.95354681
 H     11.72271789      9.62825112      3.14010942
 H     13.36018448      9.25309656      3.72852162
 H     12.83478079      6.84565482      3.08978397
 H     11.22953819      7.38208460      2.53868874
 H     10.37918910      8.12178408      4.50935592
 H     11.86316243      7.69049931      5.39257914
 H     11.35078827      5.29132592      4.74959634
 H      9.81884783      6.12293810      5.53434239
 H      9.44885999      6.49785456      6.52203933
 H     11.05045223      5.77967959      6.81766357
 H     10.37711517      3.60125629      6.10354724
 H      9.14092812      3.98643466      5.47307741
 H      8.50372833      4.16397394      4.56545823
 H      7.54908176      4.73504023      5.95499049
 H      8.02180905      2.00281460      6.29864841
 H      8.90499619      2.15160925      4.76043279
 H      7.41019705      2.72892835      3.30944476
 H      6.09587975      2.71381269      4.50969817
 H      6.54995657      0.24301188      4.76824051
 H      7.84528238      0.38284915      3.55545723
 H      5.94087567      1.03506715      1.95760409
 H      5.58754559     -0.59150219      2.82703769
 H      5.77741410     -1.65719150      3.00547301
 H      6.77889825     -1.34559237      2.46229721
 H      7.86575021     -1.32825338      2.68850158
 H      7.61319616     -0.58529097      1.09085019
 H      6.60218160     -1.85195853     -0.18350015
 H      6.70991469     -3.15211450      0.80564750
 H      7.88980518     -0.78479063     -0.87270992
 H      6.56315299     -2.18852872     -1.45197883
 H      6.38952703     -3.20304218     -1.90999526
 H      7.84375561     -1.99582457     -2.72853577
 H      6.95727227     -0.64426649     -3.14739942
 H      6.08253230     -1.19629812     -3.36569253
 H      8.67939310     -0.34679928     -3.08121619
 H      8.01666736     -0.07054922     -4.33217223
 H      9.06918231      0.54730655     -4.69094744
 H      9.70089179     -0.82457500     -3.27852376
 H     10.56754468      1.33845509     -3.88356605
 H      8.84482576      1.68621361     -4.91296520
 H     11.15241351      2.23483957     -5.17249055
 H     11.59648633      0.98274274     -3.68756433
 H     10.78574110      3.48953563     -4.29633870
 H     10.91445646      3.22537041     -5.59954848
 H     11.92927793      3.31698318     -2.73208679
 H     10.29190980      3.76378558     -3.26842615
 H     11.05783267      5.82972194     -3.16811233
 H     12.66814701      5.28339358     -4.23375097
 H     12.17273301      5.92857562     -1.88573488
 H     10.42889884      5.95656221     -2.24143954
 H     10.71706114      8.07894382     -3.33001874
 H     12.41985723      7.74045176     -3.72267035
 H     11.95796312      8.16441880     -2.05678546
152
Step 20000 E=        22.4780
 C      0.00000000      0.00000000      0.00000000
 C      1.54000000      0.00000000      0.00000000
 C      2.16637443      1.14413047      0.81866998
 C      1.64451553      1.23839539      2.26448374
 C      2.28624791      2.36933922      3.08955684
 C      1.70604091      2.51632761      4.50848399
 C      0.16734635      2.48322835      4.56255334
 C     -0.41289875      2.63170873      5.98130956
 C     -1.90304532      2.25878078      6.09079902
 C     -2.51943602      2.54111554      7.47353167
 C     -3.96426634      2.03194356      7.63104123
 C     -4.67551288      2.54704348      8.89611057
 C     -3.74227190      2.73558423     10.10652937
 C     -4.42044287      3.39024020     11.32435928
 C     -3.47401833      3.62781368     12.51576158
 C     -4.14857601      4.29661028     13.72790145
 C     -4.68253000      5.71310630     13.44500186
 C     -5.43007281      6.34929239     14.63161342
 C     -6.33849592      7.52939763     14.23954318
 C     -7.17953182      7.27893646     12.97402833
 C     -8.62787618      6.84125069     13.26095998
 C     -9.47231678      6.60210714     11.99552313
 C    -10.02752047      5.17080141     11.87422703
 C     -8.99559789      4.13811951     11.38401901
 C     -9.57407324      2.72678192     11.17166912
 C     -8.53933546      1.69106633     10.69395485
 C     -9.15992362      0.39331760     10.14411979
 C     -8.14039266     -0.73544616      9.90318620
 C     -8.50088335     -1.66512488      8.72958323
 C     -7.33516902     -2.55022959      8.25073069
 C     -6.09933023     -1.75934907      7.78295887
 C     -5.16271078     -2.55310808      6.85328654
 C     -4.03280483     -1.70970449      6.23394582
 C     -3.40618935     -2.33193934      4.97228944
 C     -2.18770472     -1.56033959      4.43235514
 C     -1.52442283     -2.21538301      3.20655938
 C     -0.82856364     -3.55483216      3.51193776
 C     -0.04064616     -4.13660341      2.32352358
 C      1.20202337     -3.31488113      1.93346598
 C      2.20111188     -4.07520799      1.04165590
 C      3.57415443     -3.38964825      0.91374181
 C      4.27335110     -3.13150906      2.26136497
 C      5.47481231     -2.17246816      2.17008789
 C      6.12861734     -1.85647164      3.52813251
 C      5.38491530     -0.78519579      4.34720229
 C      5.99462307     -0.52413589      5.73705990
 C      6.15397559      0.96852357      6.08082506
 C      7.20618345      1.69926795      5.22614894
 C      7.70112589      3.02279125      5.83845447
 C      8.56483726      3.86959165      4.88528515
 H     -0.36333333      0.00000000      1.02766186
 H     -0.36333333     -0.88998127     -0.51383093
 H     -0.36333333      0.88998127     -0.51383093
 H      1.88274777      1.02450763     -0.14494165
 H      1.88274777      0.42281420      0.94437923
 H      1.37095833      1.64805690      1.36773408
 H      1.82362666      2.09124402      0.40201678
 H      2.48714289      1.46069052      2.91920812
 H      0.56594297      1.39204552      2.23023663
 H      1.49086459      3.01187120      3.46720484
 H      2.40540021      2.02017842      4.11522222
 H      0.70584132      2.94191739      4.42740301
 H      0.81049475      3.13495510      4.45019935
 H     -0.16967429      1.53170094      4.15132024
 H     -0.21478861      3.29963556      3.94973025
 H     -0.07592322      3.58368698      6.39153499
 H     -1.32169215      2.03318893      6.04430635
 H     -2.02037676      1.22081853      5.77940265
 H     -2.46841521      2.90552906      5.41984929
 H     -2.41616639      3.60561691      7.68394130
 H     -3.02416366      1.63730277      7.81481233
 H     -3.96757981      0.95422839      7.46788785
 H     -4.58253316      2.51578926      6.87490667
 H     -4.69823482      3.63610941      8.85713475
 H     -4.11760054      3.40153813      9.27908930
 H     -2.96720261      3.45169098      9.83347498
 H     -3.28347813      1.77445932     10.33857932
 H     -5.38578292      2.90834352     11.47925982
 H     -4.57292996      4.44695611     11.10481619
 H     -2.57337973      4.11768839     12.14566313
 H     -3.21168062      2.66011827     12.94336482
 H     -4.96570812      3.65700647     14.06152110
 H     -4.69120611      5.17442308     13.37704923
 H     -5.27678719      6.03269868     14.30105040
 H     -3.83213579      6.36925973     13.25955010
 H     -4.74581853      6.40369827     15.47833420
 H     -6.27458331      5.70941805     14.88747051
 H     -6.18065375      7.74724508     13.18326275
 H     -5.77062417      8.19930958     13.59391197
 H     -7.76657893      6.37324304     13.12632774
 H     -6.50043796      7.07904707     12.14518832
 H     -9.11275965      7.62306165     13.84556211
 H     -8.59865777      5.91896465     13.84116232
 H     -9.14001507      5.67311419     11.53222229
 H     -9.31434426      7.43869912     11.31489214
 H     -9.83614342      4.81353919     10.86237796
 H     -9.61043004      4.71639561     10.97553301
 H     -8.16342127      4.12444710     12.08786213
 H     -8.63694974      4.45088038     10.40338038
 H    -10.37233385      2.79122864     10.43225947
 H     -9.98409821      2.37822889     12.11955642
 H     -7.74752659      1.62820478     11.44040454
 H     -8.12074651      2.03575799      9.74840160
 H     -9.80165752      0.65050410      9.30142608
 H     -9.76018489     -0.06047300     10.93270111
 H     -7.65160481     -0.96374380     10.85032221
 H     -8.09984335     -0.93799677      8.83293903
 H     -8.56644248     -1.06325154      7.82318901
 H     -9.47075789     -2.11762422      8.93619329
 H     -7.00644312     -3.16639946      9.08761418
 H     -6.39957809     -2.05879473      8.51767898
 H     -5.74738033     -1.14970084      8.61516095
 H     -6.39866557     -1.11150140      6.95907067
 H     -5.72951509     -2.85560478      5.97275907
 H     -4.82041148     -3.43957036      7.38724891
 H     -3.43626268     -1.28873362      7.04327950
 H     -4.48432363     -0.90230819      5.65745473
 H     -4.19040891     -2.45560575      4.22542512
 H     -2.99958989     -3.30794509      5.23722270
 H     -1.42776446     -1.52995685      5.21316734
 H     -2.07955671     -1.78896981      3.37210412
 H     -2.26651810     -2.28415561      2.41115699
 H     -1.56854957     -3.29743609      3.33030896
 H     -1.57296902     -4.24517972      3.90865032
 H     -0.05971541     -3.37799591      4.26406897
 H      0.38653602     -3.30888454      1.75739916
 H     -0.73297763     -4.29090087      1.49589478
 H      1.86698584     -3.26875483      2.79590281
 H      1.49712470     -3.59836674      0.92319319
 H      1.68687875     -4.37356077      0.12806414
 H      3.16117463     -4.11173259      1.55648158
 H      3.74139677     -2.78798403      1.80712312
 H      3.42334632     -2.39672147      0.49012249
 H      5.34658642     -3.06403665      2.08328234
 H      4.36617969     -2.05416331      2.39851084
 H      5.40903588     -1.46132022      2.99352098
 H      6.20381896     -2.60084108      1.48223184
 H      5.92224850     -0.81475307      3.77376295
 H      5.35707146     -1.89464608      4.29713164
 H      5.49764471     -1.02296088      5.40496401
 H      5.35193870      0.13300556      3.76075637
 H      6.70084973      0.30175205      5.65189539
 H      5.97857310     -1.45782874      6.29925210
 H      5.16969140      1.43544017      6.04513864
 H      6.33726058      1.51556004      5.15602361
 H      7.15507557      2.76360621      5.45565287
 H      8.16223621      1.19083183      5.35087200
 H      8.28081486      2.79141021      6.73205590
 H      6.83146746      3.61938490      6.11390001
 H      7.92128350      4.52010611      4.29302718
 H      9.12562456      3.21139030      4.22166735
 H      9.25893188      4.47663727      5.46651510
152
Step 30000 E=        23.1237
 C      0.00000000      0.00000000      0.00000000
 C      1.54000000      0.00000000      0.00000000
 C      2.16637443      1.34195407      0.42239122
 C      3.69633794      1.39890071      0.25635281
 C      4.29161539      2.81019896      0.41598360
 C      3.78533518      3.56674309      1.65812744
 C      4.22982183      5.03996292      1.71858389
 C      3.50989773      5.86758252      2.79948864
 C      4.09772189      7.27607010      3.00497711
 C      3.16835343      8.23731681      3.76909689
 C      1.87166031      8.58640521      3.01522406
 C      0.94582545      9.55365807      3.77604711
 C      0.32619616      8.95413940      5.05207098
 C     -0.96189819      9.66034456      5.51433412
 C     -1.43586455      9.24247765      6.91873547
 C     -2.91704420      9.55708777      7.19931939
 C     -3.20701544     11.05176260      7.43054184
 C     -4.61312846     11.33784903      7.98964891
 C     -4.87970992     12.82595020      8.28305858
 C     -4.63573423     13.75518609      7.07948203
 C     -5.04715109     13.14760205      5.72553306
 C     -4.54552500     13.94095134      4.50464479
 C     -4.76393281     13.22433683      3.15914797
 C     -3.81105419     12.03859253      2.91907964
 C     -3.66423470     11.64292216      1.43803642
 C     -2.92247562     10.31173990      1.21589399
 C     -2.57042489     10.02897106     -0.25641782
 C     -2.06226429      8.59847081     -0.51534220
 C     -0.61663629      8.35254013     -0.04494047
 C     -0.22154301      6.86524838      0.01391997
 C     -1.00030778      6.05135827      1.06401916
 C     -0.33558520      4.71372738      1.43883576
 C     -1.06840532      3.93992004      2.55049977
 C     -0.21265641      2.85144240      3.22467349
 C     -0.90802433      2.15056956      4.40655365
 C     -0.02570971      1.11449260      5.12743191
 C      0.65428456      0.10563008      4.18328987
 C     -0.23479548     -1.09242335      3.80144610
 C      0.54867979     -2.31721976      3.29386336
 C     -0.34380382     -3.47254138      2.80365424
 C     -1.41492964     -3.91106940      3.81951971
 C     -2.50264762     -4.82623997      3.22712421
 C     -3.78739016     -4.90082789      4.07298073
 C     -4.46905197     -6.28164572      4.05626911
 C     -3.68162219     -7.37792930      4.79769790
 C     -2.57005285     -8.02974720      3.95440257
 C     -1.68107427     -9.01102546      4.74079309
 C     -0.47267232     -9.53750341      3.94443532
 C     -0.73116433     -9.67625063      2.43263802
 C      0.51386633     -9.43340444      1.55941160
 H     -0.36333333      0.00000000      1.02766186
 H     -0.36333333     -0.88998127     -0.51383093
 H     -0.36333333      0.88998127     -0.51383093
 H      1.88274777      0.92867423     -0.45627639
 H      1.88274777      0.69546669      0.76612665
 H      3.05931276      1.13304842      1.01155976
 H      1.82362666      2.11259499     -0.26806989
 H      3.94711249      2.30040787     -0.30266147
 H      4.13672962      0.60864280      0.86433932
 H      3.47030404      3.51782237      0.52919489
 H      4.49835019      2.97743967      1.47305089
 H      4.47832603      4.38109924      1.86952224
 H      4.57730092      4.23307734      2.00001769
 H      3.85358424      5.54819615      0.83075268
 H      5.31942215      5.06945324      1.71979211
 H      3.46159297      6.90313557      2.46274462
 H      3.74031731      6.92022203      2.63530310
 H      3.27490659      7.99051433      3.03036275
 H      5.14385368      7.17221207      3.29293854
 H      2.96014063      7.80657609      4.74848949
 H      2.14905638      7.85782904      3.69752486
 H      1.32660946      7.66193763      2.82449059
 H      2.14110657      9.05156889      2.06700390
 H      1.49358915     10.47752858      3.96183789
 H      1.24623835      9.56277250      4.82379183
 H      1.13543781      8.65800011      5.71955093
 H     -0.25329867      8.07472612      4.77114748
 H     -1.60118241      9.81112751      4.64446047
 H     -0.68972223     10.62739887      5.93721260
 H     -0.58564394      9.29934492      7.59843468
 H     -1.79240603      8.21368307      6.86814002
 H     -3.52456268      9.03201351      6.46221810
 H     -3.06043665     10.63436891      7.11562978
 H     -4.25046908     11.15649273      7.72775573
 H     -2.72388399     11.35494179      8.35939403
 H     -4.71574142     10.81748848      8.94190701
 H     -5.34795946     10.95140269      7.28340346
 H     -4.01706809     13.40140751      7.94720452
 H     -4.03271570     13.22191306      8.84333905
 H     -4.21880279     13.16075819      6.26650992
 H     -3.59647536     13.64792071      6.76878098
 H     -6.11023298     12.91016196      5.76527094
 H     -4.47581185     12.23196232      5.57297039
 H     -3.96244526     13.26879364      3.87510365
 H     -4.74883184     14.99807168      4.67570884
 H     -3.81374933     13.19992379      2.62561694
 H     -3.78906196     12.96050087      2.74912672
 H     -3.95634011     11.31440056      3.72066430
 H     -2.78694916     12.41079526      2.94690070
 H     -3.28426137     12.50455578      0.88912134
 H     -4.64899618     11.37408297      1.05584498
 H     -3.47304623      9.52290545      1.72844857
 H     -1.92552036     10.39865746      1.64789578
 H     -1.93733360     10.83877252     -0.61907058
 H     -3.49591531     10.00579680     -0.83177026
 H     -2.83878504      7.89800879     -0.20798496
 H     -1.38232645      8.32498313      0.29149671
 H     -0.56751952      8.54498182      1.02681218
 H      0.03763106      9.04888393     -0.56947793
 H     -0.33420692      6.44094135     -0.98376254
 H     -1.11112004      6.28360911      0.25568117
 H     -2.06256105      6.11472890      0.82800610
 H     -0.81880313      6.49324257      2.04376113
 H      0.65762863      4.92388412      1.83564862
 H     -0.24574687      4.11060663      0.53535669
 H     -2.08438253      3.73506381      2.21297311
 H     -0.45451990      3.96966974      3.45069955
 H      0.66605388      3.32711566      3.66022279
 H     -0.86678322      2.02577572      3.50483889
 H     -1.82427802      1.68794697      4.03973010
 H     -0.14219744      1.82409692      5.11013363
 H      0.86162354      1.62301166      5.50445721
 H      0.79718371      0.84512904      4.46532189
 H      1.27895711      0.65939329      3.48241148
 H     -0.04784896     -0.14735995      3.38886897
 H      0.23471062     -1.61599307      2.96865635
 H     -0.51703293     -1.61487426      4.71549592
 H      1.23382698     -2.63552096      4.07958447
 H     -0.00540615     -2.75949500      2.46592532