152
Step 1 E=        19.8571
 C      0.00000000      0.00000000      0.00000000
 C      1.54000000      0.00000000      0.00000000
 C      2.16637443      1.40686000      0.00000000
 C      3.66258126      1.42635798      0.36412216
 C      4.37444288      2.74721905      0.01745361
 C      5.74756620      2.91509470      0.69417372
 C      6.61420783      4.03231159      0.08396170
 C      7.80827375      4.44933657      0.96253826
 C      8.86966735      5.28384156      0.22183248
 C      9.86262187      6.00358967      1.15328510
 C     11.12184635      6.52987085      0.43985548
 C     11.92973321      7.54856924      1.26518717
 C     13.35239120      7.79950336      0.73163652
 C     14.02631261      9.05674727      1.31195340
 C     15.54704658      9.11737171      1.07680900
 C     16.16348261     10.50756727      1.31963181
 C     17.69835589     10.49897091      1.44489208
 C     18.34467642     11.89133844      1.32167505
 C     19.80707386     11.94772305      1.80106479
 C     20.56498756     13.21107141      1.35260327
 C     21.88202353     13.45432906      2.11276245
 C     22.81209933     14.48190799      1.44146478
 C     23.93842489     14.99853024      2.35584554
 C     25.06861801     15.72825267      1.60633323
 C     25.99501164     16.55294604      2.51917259
 C     27.31536789     16.97914964      1.85088383
 C     28.07048235     18.08826088      2.60671081
 C     29.53502382     18.26278069      2.16369712
 C     30.44229044     18.89586346      3.23499235
 C     31.94806060     18.74197477      2.95113586
 C     32.84278683     19.66574383      3.79831688
 C     34.33180797     19.27282464      3.79278906
 C     35.27176979     20.37251088      4.32076818
 C     36.68923707     19.87522015      4.66001506
 C     37.72364121     21.00272940      4.83417291
 C     39.02830466     20.55549782      5.51932778
 C     40.18846707     21.55746527      5.37207146
 C     41.36044582     21.30524052      6.33874022
 C     42.65385933     22.05208345      5.96336421
 C     43.69840776     22.10287192      7.09382390
 C     45.10732264     22.51333738      6.62683677
 C     46.05383502     22.91774385      7.77233654
 C     47.53862143     22.97430088      7.36760129
 C     48.43506358     23.71594218      8.37654116
 C     49.94171889     23.46810279      8.17612805
 C     50.84554172     24.46671135      8.92277740
 C     52.31592054     24.02165118      9.03005072
 C     53.28317681     25.14828058      9.43836618
 C     54.66600583     24.65053598      9.89840336
 C     55.74073171     25.75198806      9.95643415
 H     -0.36333333      0.00000000      1.02766186
 H     -0.36333333     -0.88998127     -0.51383093
 H     -0.36333333      0.88998127     -0.51383093
 H      1.88274777     -0.52778528     -0.88998127
 H      1.88274777     -0.52778528      0.88998127
 H      1.62962592      2.02101998      0.72305501
 H      2.05048553      1.83364121     -0.99625678
 H      4.15717254      0.61860736     -0.17533905
 H      3.75648615      1.25769264      1.43689142
 H      3.73528646      3.57318737      0.32947188
 H      4.51745299      2.78633854     -1.06241572
 H      6.29022101      1.97384542      0.60656354
 H      5.58492586      3.14405090      1.74737226
 H      5.98363611      4.90706985     -0.07502660
 H      6.99911231      3.68290906     -0.87409175
 H      8.28610715      3.54634474      1.34251327
 H      7.42998472      5.03909210      1.79751480
 H      8.35704665      6.03512878     -0.37890668
 H      9.43363806      4.61865673     -0.43205296
 H     10.17502842      5.30336409      1.92800201
 H      9.35043231      6.84897395      1.61272744
 H     10.81419884      7.00881589     -0.48969531
 H     11.76813359      5.68146395      0.21486982
 H     12.00744527      7.17720748      2.28702438
 H     11.39075684      8.49598644      1.26292277
 H     13.29790978      7.90882650     -0.35149793
 H     13.96865155      6.93514349      0.97903338
 H     13.84452212      9.07804827      2.38647585
 H     13.57273755      9.93327282      0.84927359
 H     15.74596536      8.82981289      0.04441313
 H     16.02662478      8.40735002      1.75058489
 H     15.74654059     10.91094553      2.24242395
 H     15.89131889     11.15370606      0.48504715
 H     18.10290589      9.86245378      0.65794529
 H     17.96048921     10.08434135      2.41827199
 H     17.76148007     12.59382929      1.91706452
 H     18.31556825     12.19123888      0.27414823
 H     20.33053216     11.07627652      1.40778074
 H     19.81219144     11.91358169      2.89051795
 H     19.91592862     14.07304752      1.50693953
 H     20.79453568     13.11447190      0.29143590
 H     22.41514170     12.50648610      2.18678091
 H     21.63924254     13.81369382      3.11276963
 H     22.21004628     15.33352976      1.12464863
 H     23.26690569     14.01365826      0.56854246
 H     24.37012457     14.14729605      2.88228237
 H     23.50382338     15.68987485      3.07783180
 H     24.61753472     16.40164202      0.87751868
 H     25.67261256     14.98360640      1.08788120
 H     26.23342677     15.95302465      3.39743937
 H     25.46100537     17.45185529      2.82723015
 H     27.09061914     17.34019209      0.84727217
 H     27.96421896     16.10571990      1.78597790
 H     28.06036193     17.84674864      3.66956988
 H     27.54831792     19.03099937      2.44334486
 H     29.56909848     18.23653149      1.07454612
 H     30.11590230     17.43257680      2.56549518
 H     30.22385889     18.42266797      4.19231867
 H     30.21166330     19.95952559      3.29443973
 H     32.12313468     18.96603304      1.89887783
 H     32.23145429     17.70934721      3.15477363
 H     32.48519613     19.63948260      4.82765610
 H     32.75447659     20.67991954      3.40876721
 H     34.62050877     19.03794999      2.76829614
 H     34.45506774     18.38779373      4.41699040
 H     34.83153132     20.79518302      5.22389517
 H     35.35373474     21.14805453      3.55924747
 H     37.02564512     19.22293057      3.85413174
 H     36.64024225     19.30841825      5.58976509
 H     37.27292278     21.79128991      5.43677164
 H     37.97158340     21.39570086      3.84817185
 H     39.33746302     19.60638471      5.08148603
 H     38.82756578     20.41727331      6.58172973
 H     39.80142180     22.55955672      5.55675678
 H     40.56664651     21.49639732      4.35160538
 H     41.57255962     20.23612430      6.34865170
 H     41.05721922     21.62475378      7.33576825
 H     42.39257834     23.07489801      5.69191879
 H     43.10186439     21.55152027      5.10497737
 H     43.76206587     21.11330592      7.54637974
 H     43.36136461     22.82257137      7.83983637
 H     45.01007278     23.36014149      5.94745083
 H     45.55151423     21.67107934      6.09636979
 H     45.94574913     22.19221174      8.57857509
 H     45.75805257     23.90426825      8.12924317
 H     47.61259616     23.48170370      6.40574366
 H     47.90608286     21.95287763      7.26877498
 H     48.16447988     23.38891012      9.38050057
 H     48.24780282     24.78538406      8.27996230
 H     50.16167557     23.53700828      7.11077783
 H     50.17406891     22.46398432      8.53089496
 H     50.45248934     24.59715525      9.93104037
 H     50.81350574     25.41945567      8.39423985
 H     52.62896231     23.63603045      8.05979225
 H     52.38037288     23.22802932      9.77443654
 H     52.83088483     25.70851397     10.25670016
 H     53.42366353     25.80681904      8.58122524
 H     55.00160216     23.88046375      9.20380717
 H     54.56158005     24.22072695     10.89462596
 H     56.10574519     25.84996258     10.97881674
 H     55.30849349     26.69879269      9.63265783
 H     56.56863906     25.48680813      9.29890163
152
Step 10000 E=        18.2863
 C      0.00000000      0.00000000      0.00000000
 C      1.54000000      0.00000000      0.00000000
 C      2.16637443      0.80984014     -1.15039733
 C      1.65510758      0.41183386     -2.54746469
 C      2.08086866      1.37763081     -3.66887619
 C      1.23189457      1.26458188     -4.94874452
 C      1.43098249     -0.05460724     -5.71796755
 C      0.16584573     -0.55671298     -6.43832774
 C      0.15720424     -2.07341397     -6.70505497
 C     -1.12492918     -2.58160975     -7.39023448
 C     -2.31765959     -2.76142978     -6.43281142
 C     -3.60958488     -3.23578877     -7.12383426
 C     -4.87424337     -3.08653630     -6.25783045
 C     -5.08929530     -4.23910838     -5.25936649
 C     -6.52443134     -4.33097701     -4.70841758
 C     -7.04389373     -3.01884731     -4.09191578
 C     -8.57915255     -2.92981871     -4.01034206
 C     -9.09497200     -1.70989796     -3.22464261
 C     -8.48128154     -1.56455345     -1.81970168
 C     -8.81657512     -0.23192562     -1.12451732
 C     -8.12814937     -0.04698817      0.24057173
 C     -8.43742246      1.29960727      0.92074146
 C     -7.81392062      1.45207217      2.32059856
 C     -6.38197528      0.89652352      2.43239407
 C     -5.67939918      1.23816911      3.75952071
 C     -4.15101343      1.05257011      3.72502393
 C     -3.40414207      1.79705509      4.84730967
 C     -1.94637186      1.33955325      5.04017771
 C     -1.03586181      1.62251302      3.83083689
 C     -0.89802767      3.11722868      3.48670490
 C     -0.17736638      3.38910017      2.15316330
 C     -0.42592151      4.79777705      1.58268121
 C      0.47914147      5.15936158      0.39032320
 C      1.98220631      5.16986126      0.72541403
 C      2.89899901      5.02780412     -0.50377713
 C      2.50349806      5.92968536     -1.68774893
 C      1.88476304      5.16900203     -2.87523698
 C      1.58143036      6.05552428     -4.09739392
 C      1.04282804      5.28114572     -5.31470464
 C     -0.43540069      4.86773289     -5.19008663
 C     -1.01509152      4.22348899     -6.46307852
 C     -2.52192422      3.91679607     -6.37944443
 C     -2.88823584      2.85999640     -5.32086507
 C     -4.37308454      2.45168265     -5.33107360
 C     -4.68296239      1.19525325     -4.49623177
 C     -4.48352028      1.38509281     -2.98104736
 C     -4.93192359      0.17943568     -2.13433291
 C     -4.43241110     -1.17788196     -2.66327156
 C     -4.41393915     -2.29484712     -1.60324910
 C     -3.51132586     -1.99425630     -0.39224356
 H     -0.36333333      0.00000000      1.02766186
 H     -0.36333333     -0.88998127     -0.51383093
 H     -0.36333333      0.88998127     -0.51383093
 H      1.88274777      1.00255722     -0.25593551
 H      1.88274777      1.03173980     -0.07833869
 H      1.62962592      1.75461926     -1.23638246
 H      1.40055064      0.97849178     -1.90747761
 H      0.57199032      0.30036526     -2.49714816
 H      2.22203512      0.97075398     -3.29197893
 H      3.13496529      1.61878310     -3.53166884
 H      1.32729943      1.34280903     -4.45565498
 H      0.18245156      1.20671549     -4.65991786
 H      0.67740962      0.32693272     -4.91052807
 H      1.43008653     -0.87400219     -4.99915526
 H      1.07248518      0.08578468     -6.73770761
 H     -0.30293941      0.29075911     -6.93845928
 H     -0.51686248     -0.96043111     -5.69065055
 H      0.49908497     -2.58190776     -5.80358305
 H      0.84670482     -2.28147204     -7.52322414
 H     -1.37851142     -1.89337419     -8.19653955
 H     -1.91986432     -2.61893215     -6.64539547
 H     -2.36731459     -1.89015808     -5.77972643
 H     -2.14441040     -3.65528765     -5.83355952
 H     -3.35303925     -4.03613141     -7.81790630
 H     -4.03055422     -2.39619832     -7.67698226
 H     -4.84932346     -2.10678420     -5.78079292
 H     -4.70490457     -3.60163164     -5.31226122
 H     -4.13499781     -4.46152374     -4.78192778
 H     -5.97234387     -4.79903825     -5.56726870
 H     -7.21910782     -4.20339226     -5.53862642
 H     -6.89713225     -3.31862715     -4.55239902
 H     -6.77580490     -2.19794793     -4.75701171
 H     -7.72748361     -3.26847451     -3.28044112
 H     -8.95867286     -3.88299528     -3.64221331
 H     -8.85318827     -1.88999940     -3.83207199
 H     -8.52232182     -0.83565936     -3.53428537
 H     -8.34890880     -1.44409152     -2.47575233
 H     -7.40812581     -1.74012746     -1.89460530
 H     -8.92825525     -2.31774508     -1.17084356
 H     -9.87692349     -0.02622791     -1.27097477
 H     -8.22572621      0.55625529     -1.59117396
 H     -7.08701588     -0.35487576      0.14389555
 H     -8.63009630     -0.68613383      0.96696150
 H     -9.50611011      1.49299700      0.82796684
 H     -7.88055816      2.08082043      0.40333625
 H     -7.36122725      0.50060226      2.59965717
 H     -8.38246079      0.83674901      3.01790730
 H     -5.81965795      1.21950144      1.55627507
 H     -6.43688043     -0.19198215      2.44791242
 H     -6.38483772      1.07158117      4.57358760
 H     -5.39411793      2.28989919      3.73546937
 H     -3.77515560      1.47682922      2.79398414
 H     -3.93476903     -0.01544819      3.75100991
 H     -3.94312183      1.63865398      5.78139206
 H     -2.33335309      1.70823866      4.66394499
 H     -1.67850897      0.68852180      4.20800734
 H     -1.95463062      0.36681877      5.53192908
 H     -1.36088393      2.55413202      3.36764507
 H     -1.27854134      0.90782062      3.04443914
 H     -0.74610768      3.66981840      4.41388608
 H     -1.82350388      3.44702154      3.01465569
 H     -0.56927373      2.69999454      1.40507102
 H      0.88741874      3.20418443      2.29507454
 H     -0.33839880      5.51752403      2.39656330
 H     -0.09512963      4.81026775      0.54416269
 H      0.51329515      4.30488723     -0.28555186
 H      1.50583820      4.89953617      0.64816924
 H      2.20682731      4.28488781      1.32078567
 H      2.19691929      6.06478673      1.30945748
 H      2.49542005      5.64604623     -1.30565038
 H      2.86259305      3.99179437     -0.84061301
 H      2.27462401      6.92263096     -1.30074027
 H      1.60729710      5.51551200     -2.14968428
 H      1.16473928      4.45019342     -2.48411045
 H      2.68223338      4.63819882     -3.39522641
 H      2.43612264      6.71057193     -4.26625386
 H      0.70074101      6.65764652     -3.87393239
 H      0.52866423      4.39025344     -4.95408502
 H      1.87112276      4.73723987     -5.76879084
 H     -0.99751687      5.71759880     -4.80297769
 H     -0.50105855      4.03782724     -4.48649182
 H     -0.28803326      3.50762243     -6.84651215
 H     -1.17622498      5.00869163     -7.20172107
 H     -3.02303027      4.77818822     -5.93786058
 H     -2.77218942      3.70904458     -5.33910475
 H     -2.33425965      3.08211904     -4.40879494
 H     -2.59139670      1.88093745     -5.69693701
 H     -4.68072371      2.30359402     -6.36621991
 H     -4.95447579      3.26223757     -4.89165930
 H     -4.22189937      1.31302564     -3.51559394
 H     -4.31937270      0.32374394     -5.04063425
 H     -4.92165641      2.34123372     -2.69481092
 H     -3.41319381      1.39979311     -2.77541385
 H     -5.05744292     -0.67695699     -2.79685573
 H     -6.02149919      0.16604995     -2.10702303
 H     -3.38207204     -1.07412465     -2.93552565
 H     -5.01352107     -1.43556507     -3.54871530
 H     -3.42740624     -2.31148234     -1.14002551
 H     -3.39378647     -2.40017464     -1.23406808
 H     -4.11546421     -1.97279979      0.51476056
 H     -3.02853179     -1.02679524     -0.53018919
 H     -2.75111893     -2.77041802     -0.30416177
152
Step 20000 E=        12.5836
 C      0.00000000      0.00000000      0.00000000
 C      1.54000000      0.00000000      0.00000000
 C      2.16637443     -0.65796131      1.24352000
 C      2.09892701      0.21113374      2.51305718
 C      2.38228725     -0.55983335      3.81571474
 C      2.80367313      0.33644165      4.99500482
 C      4.10498929      1.12277687      4.75035574
 C      4.56478778      1.96362732      5.95582489
 C      5.87880549      2.73114728      5.71945530
 C      6.29886953      3.63121659      6.89632464
 C      5.19163320      4.58526520      7.38152456
 C      5.59143371      5.44216061      8.59704495
 C      4.41252907      6.18037182      9.25797463
 C      3.84703591      7.33858408      8.41514496
 C      2.74619736      8.14957044      9.12370377
 C      1.47293782      7.34041781      9.43302911
 C      0.59423812      7.95379183     10.53903956
 C     -0.42833677      6.97316627     11.14262393
 C     -1.30705464      6.26207013     10.09677634
 C     -2.02016706      5.00490276     10.62837852
 C     -3.04732587      4.40631804      9.64948062
 C     -3.79488939      3.17756493     10.19985739
 C     -4.75981033      2.52762619      9.19084440
 C     -4.16647302      2.35186892      7.78064575
 C     -5.02202619      1.47694911      6.84568902
 C     -4.26345359      0.94903647      5.61383032
 C     -4.92474282     -0.27118432      4.94647899
 C     -4.33152459     -0.63132514      3.57170966
 C     -2.82070347     -0.92836215      3.59979086
 C     -2.42766671     -2.08847715      4.53320144
 C     -0.94390422     -2.08549736      4.94556052
 C     -0.59794878     -3.10429777      6.04735930
 C      0.88223056     -3.52896621      6.06540992
 C      1.32761853     -4.30139764      4.80979086
 C      2.85107327     -4.50028614      4.70429669
 C      3.53126001     -4.84928523      6.04113835
 C      4.36291614     -3.69963715      6.63968440
 C      5.07358658     -4.06069328      7.95732851
 C      5.75771772     -2.86616543      8.64773985
 C      4.78242188     -1.91549230      9.36650172
 C      5.43405375     -0.61539707      9.87318534
 C      4.44546300      0.36638033     10.52923525
 C      3.53446607      1.10065292      9.52797187
 C      2.40233227      1.90959979     10.18787947
 C      1.57430945      2.75038115      9.19840238
 C      1.08201823      1.96530969      7.96839744
 C      0.19061797      2.78548321      7.01743953
 C     -0.53298737      1.94047356      5.95256676
 C     -1.21252448      2.77191971      4.84869782
 C     -0.26807896      3.75753482      4.13582650
 H     -0.36333333      0.00000000      1.02766186
 H     -0.36333333     -0.88998127     -0.51383093
 H     -0.36333333      0.88998127     -0.51383093
 H      1.88274777     -0.96217403      0.38058521
 H      1.88274777     -1.01356706      0.20810040
 H      1.62962592     -1.58429859      1.44821556
 H      1.56910140     -0.38472756      2.11340979
 H      1.10050127      0.64330836      2.57992367
 H      2.57673321     -0.33376657      3.32723461
 H      3.24595060     -1.20424698      3.65165168
 H      2.50480140      0.16316810      4.62216325
 H      2.14547725      1.20498311      5.01767440
 H      2.96574063      1.34601625      4.61738961
 H      4.06872891      1.54108306      3.74447050
 H      4.79505784      0.90570295      5.56569880
 H      4.46589237      1.35594082      6.85528963
 H      3.91530858      2.83557242      6.03321027
 H      5.83542921      3.18874354      4.73111115
 H      6.70292776      2.01860031      5.75408610
 H      6.16339874      3.07111748      7.82154713
 H      5.43510132      4.22195197      7.20134298
 H      4.25831144      4.02532891      7.44053168
 H      5.08778442      5.38880976      6.65239387
 H      6.59674384      5.82821277      8.42847660
 H      5.59058708      4.80452095      9.48107829
 H      3.57709471      5.48540492      9.34265303
 H      3.78431268      6.59702270      8.47067151
 H      3.75727428      6.99949053      7.38312828
 H      3.86089518      8.24332950      9.02288145
 H      3.06513136      8.33763764     10.14889245
 H      2.02036322      7.45119945      9.54028841
 H      1.77130915      6.37308166      9.83717676
 H      0.61638142      8.01147135      9.36901142
 H      0.51851493      9.02651751     10.36120359
 H      0.22668370      7.14620820     11.17213704
 H      0.07306046      6.02193960     11.32114180
 H     -0.68968140      6.23859196     10.38091561
 H     -0.66716931      5.93362877      9.27776899
 H     -2.03945719      6.97680196      9.72148323
 H     -2.43413517      5.23499356     11.61010589
 H     -1.28353088      4.20703629     10.72259234
 H     -2.60365971      4.39120136      8.65397480
 H     -3.92948042      5.04653507      9.64443118
 H     -4.09222011      3.38896075     11.22699236
 H     -3.11304635      2.32726144     10.18666550
 H     -4.73788410      3.11149335      8.27067138
 H     -5.63863120      3.16559646      9.09720785
 H     -3.15311491      1.96315141      7.88116460
 H     -4.13471769      3.32865774      7.29797072
 H     -6.06459132      1.77525753      6.95600684
 H     -4.90764030      0.43657052      7.15003793
 H     -3.28722912      0.59044792      5.94017375
 H     -4.13202395      1.77343874      4.91298288
 H     -5.99658215     -0.08532245      4.87780711
 H     -4.22822316     -0.68127921      4.21519072
 H     -3.49130246      0.03482337      3.37581953
 H     -4.68107253      0.10189082      2.84485989
 H     -2.57529387     -1.36562771      4.56760953
 H     -2.28779483      0.01581375      3.71221971
 H     -3.13258498     -2.90560399      4.37992404
 H     -2.49603236     -1.73801510      5.56305700
 H     -0.66352936     -1.06574453      5.20936748
 H     -0.35061107     -2.41647263      4.09317645
 H     -1.08622586     -4.04859962      5.80656993
 H      0.46552632     -3.01957748      6.27083898
 H      1.49640781     -2.63617703      5.94787786
 H      1.16330766     -3.83503158      5.05772959
 H      0.92593963     -3.79224248      3.93371148
 H      0.91710469     -5.30967922      4.86407396
 H      3.24497186     -4.66862992      5.70659619
 H      3.30211566     -3.54918709      4.42132786
 H      2.92568645     -5.60063963      6.54793933
 H      3.55098658     -3.95229611      6.66010635
 H      3.78549992     -2.77898284      6.55550515
 H      5.28286420     -3.60558815      6.06266591
 H      5.52396630     -5.04689229      7.84476914
 H      4.32803370     -4.09028896      8.75191959
 H      5.23016574     -1.95644449      8.36104018
 H      6.66247194     -2.62096985      8.09150345
 H      4.06422953     -2.51774434      9.92291185
 H      4.25767376     -1.32863566      8.61261930
 H      6.08051819     -0.22676167      9.08632686
 H      6.03366047     -0.85244923     10.75203575
 H      3.78970967     -0.19884499     11.19151005
 H      3.51994740      0.35676733      9.95353702
 H      3.16803676      0.37488493      8.80196197
 H      4.12801507      1.85836427      9.01643194
 H      2.81940124      2.45538390     11.03420871
 H      1.64458800      1.21145558     10.54357355
 H      1.54654904      2.22644394      8.24298668
 H      2.17120701      3.61112467      8.89684990
 H      0.69834782      1.00292339      8.30708553
 H      1.92990119      1.80447775      7.30256895
 H      0.19043057      2.29829472      6.04237679
 H     -0.25563732      2.10414200      6.29305677
 H     -0.93956537      1.05295519      6.43744351
 H      0.19568431      1.64128197      5.19915985
 H     -0.73006864      3.74853157      4.80912969
 H     -0.82277419      3.78873414      4.89647985
 H     -0.21510006      3.50799349      3.07609900
 H      0.72707444      3.68951443      4.57530681
 H     -0.64774009      4.77270722      4.25150892
152
Step 30000 E=        11.9973
 C      0.00000000      0.00000000      0.00000000
 C      1.54000000      0.00000000      0.00000000
 C      2.16637443     -0.19154824      1.39375907
 C      3.70608788     -0.22099524      1.38984086
 C      4.33680735     -0.18678129      2.79434162
 C      4.02448352      1.09410360      3.59019822
 C      4.84772176      2.31982078      3.15259544
 C      4.26389025      3.66591422      3.62032741
 C      4.57183611      4.84377834      2.67724445
 C      4.22580196      6.22425984      3.26557361
 C      2.78959087      6.33051625      3.81110756
 C      2.38901372      7.75191470      4.24787340
 C      1.00975724      7.83283485      4.92809652
 C     -0.16051577      7.40198444      4.02453192
 C     -1.53077772      7.41117107      4.72731055
 C     -1.59901058      6.51599097      5.97854869
 C     -2.71098663      6.90793463      6.96925017
 C     -2.64634795      6.15737346      8.31241054
 C     -2.59346285      4.62473721      8.17159410
 C     -1.96992566      3.90563545      9.38225262
 C     -2.01777213      2.36908660      9.29099294
 C     -1.33374137      1.65006536     10.46857962
 C     -1.34675854      0.11413430     10.35746569
 C     -0.93273895     -0.41722312      8.97260213
 C     -0.41121640     -1.86614682      8.98791070
 C      0.42677733     -2.24332452      7.75215042
 C      1.43185031     -3.38326900      8.00105782
 C      2.15156309     -3.87234047      6.73045850
 C      2.96829685     -2.78101208      6.01383566
 C      3.94489324     -2.02428838      6.93319888
 C      4.47074877     -0.70494238      6.33788208
 C      5.31700774      0.13044120      7.31644225
 C      6.22804806      1.16550917      6.63070190
 C      7.15669266      0.56868356      5.55691496
 C      8.04585980      1.60832399      4.84971657
 C      8.76461650      2.57445265      5.80970834
 C      8.09496434      3.95642668      5.92509358
 C      8.74334566      4.88119786      6.97199374
 C      8.04175445      6.24359499      7.12445304
 C      6.61681082      6.15324969      7.70149150
 C      5.89902462      7.51114953      7.81325461
 C      4.48544443      7.42451899      8.41813988
 C      3.61660405      6.30163730      7.82160564
 C      2.18689091      6.24623217      8.39121131
 C      1.41489331      4.96575740      8.02242398
 C      2.20958836      3.66693280      8.25288969
 C      1.49581824      2.39831657      7.75015210
 C      1.33246250      2.33619849      6.22010104
 C      0.28872807      1.30936885      5.74277585
 C     -0.50904165      1.75678678      4.50383248
 H     -0.36333333      0.00000000      1.02766186
 H     -0.36333333     -0.88998127     -0.51383093
 H     -0.36333333      0.88998127     -0.51383093
 H      1.88274777     -0.77327783      0.68750663
 H      1.88274777     -0.88071238      0.54311110
 H      1.62962592     -0.99148977      1.90375375
 H      3.07560118      0.40733502      1.44615708
 H      4.06265813      0.58393040      0.74714936
 H      4.04660404     -0.47459611      2.39375089
 H      3.78834847     -0.87888622      3.43331236
 H      3.92569413      0.66636795      3.33399178
 H      2.96501930      1.32135290      3.47190487
 H      3.79524438      1.89033020      2.88198031
 H      4.85879720      2.35407586      2.06319013
 H      5.04726333      2.93074122      4.03297001
 H      3.96383586      3.56545866      4.66338831
 H      3.38876191      3.89036599      3.01051450
 H      4.40589192      4.51411005      1.65163178
 H      5.61830573      5.12065727      2.80507008
 H      4.57849069      6.25567954      4.29645841
 H      3.21650359      6.17925653      3.67470869
 H      2.57513705      5.43164120      4.38915013
 H      2.10508790      6.39027057      2.96494852
 H      2.72643453      8.45293687      3.48445011
 H      2.88800673      7.97403865      5.19114797
 H      0.92927116      7.01025732      5.63872174
 H      0.35582514      7.09321670      4.46610323
 H      0.12763617      6.48974440      3.50214645
 H     -0.95100490      8.14774755      4.10858145
 H     -1.61156497      8.32952961      5.30885248
 H     -1.40770145      6.98716036      5.72388827
 H     -0.69411366      6.67656069      6.56461944
 H     -2.61996441      6.14842888      6.08175421
 H     -3.62016031      7.10820919      6.40233456
 H     -2.36815508      6.67758636      7.97796530
 H     -1.60927242      6.14334109      8.64763799
 H     -2.20023572      5.17845614      8.13689771
 H     -1.88209378      4.37728224      7.38367273
 H     -3.58546018      4.27204277      7.88937444
 H     -2.37858176      4.34735934     10.29108714
 H     -0.89149406      4.06174853      9.35553207
 H     -1.72397647      2.07628798      8.28299836
 H     -3.04171903      2.04627494      9.47920922
 H     -1.63572075      2.14252414     11.39291333
 H     -0.25452844      1.73995992     10.34481194
 H     -1.86118328     -0.15849848      9.43597855
 H     -2.35501553     -0.23687688     10.57725877
 H     -0.05498642      0.13749503      8.64103271
 H     -1.75549736     -0.24387513      8.27897466
 H     -1.07373360     -2.46227380      9.61544841
 H      0.59117352     -1.86511725      9.41606184
 H      1.11771315     -1.42634026      7.54419752
 H     -0.24860144     -2.37218167      6.90636123
 H      0.92828376     -4.16659344      8.56755896
 H      2.14638694     -3.39601334      7.17802988
 H      1.86420662     -3.22398896      5.90271061
 H      1.44824217     -4.46386846      6.14434049
 H      3.23118607     -2.01502791      6.74339547
 H      2.27431122     -2.11277819      5.50398527
 H      4.45736415     -2.75224423      7.56212959
 H      3.36819266     -1.34442006      7.56033165
 H      3.63137588     -0.17172524      5.89152724
 H      5.20118842     -0.94467050      5.56516716
 H      6.00662930     -0.53884485      7.83081400
 H      5.57478845      1.07112550      6.82986013
 H      5.65133290      1.66906752      5.85486131
 H      6.65275786      0.70924358      5.73653005
 H      6.57528153     -0.12245067      4.94667355
 H      7.95670743      0.02501555      6.05941020
 H      8.44782296      2.28512116      5.60368686
 H      7.42371153      2.17930787      4.16050765
 H      9.17170171      1.99475012      6.63815666
 H      8.01314014      3.19578810      6.29686902
 H      7.01893872      3.80922300      6.01782939
 H      8.30783892      4.51749158      5.01515370
 H      9.82592748      4.81678513      6.86259722
 H      8.45684175      4.53044846      7.96345245
 H      7.04617381      6.16724929      6.68731401
 H      8.29115231      6.85639277      6.25820851