152
Step 1 E=        -2.4184
 C      0.00000000      0.00000000      0.00000000
 C      1.54000000      0.00000000      0.00000000
 C      2.16637443      1.35543902     -0.37688211
 C      3.70637443      1.35543902     -0.37688211
 C      4.33274886      2.71087805     -0.75376422
 C      5.87274886      2.71087805     -0.75376422
 C      6.49912329      4.06631707     -1.13064632
 C      8.03912329      4.06631707     -1.13064632
 C      8.66549772      5.42175610     -1.50752843
 C     10.20549772      5.42175610     -1.50752843
 C     10.83187215      6.77719512     -1.88441054
 C     12.37187215      6.77719512     -1.88441054
 C     12.99824658      8.13263415     -2.26129265
 C     14.53824658      8.13263415     -2.26129265
 C     15.16462101      9.48807317     -2.63817475
 C     16.70462101      9.48807317     -2.63817475
 C     17.33099544     10.84351220     -3.01505686
 C     18.87099544     10.84351220     -3.01505686
 C     19.49736987     12.19895122     -3.39193897
 C     21.03736987     12.19895122     -3.39193897
 C     21.66374430     13.55439025     -3.76882108
 C     23.20374430     13.55439025     -3.76882108
 C     23.83011873     14.90982927     -4.14570318
 C     25.37011873     14.90982927     -4.14570318
 C     25.99649316     16.26526830     -4.52258529
 C     27.53649316     16.26526830     -4.52258529
 C     28.16286759     17.62070732     -4.89946740
 C     29.70286759     17.62070732     -4.89946740
 C     30.32924202     18.97614635     -5.27634951
 C     31.86924202     18.97614635     -5.27634951
 C     32.49561646     20.33158537     -5.65323161
 C     34.03561646     20.33158537     -5.65323161
 C     34.66199089     21.68702440     -6.03011372
 C     36.20199089     21.68702440     -6.03011372
 C     36.82836532     23.04246342     -6.40699583
 C     38.36836532     23.04246342     -6.40699583
 C     38.99473975     24.39790245     -6.78387794
 C     40.53473975     24.39790245     -6.78387794
 C     41.16111418     25.75334147     -7.16076004
 C     42.70111418     25.75334147     -7.16076004
 C     43.32748861     27.10878050     -7.53764215
 C     44.86748861     27.10878050     -7.53764215
 C     45.49386304     28.46421952     -7.91452426
 C     47.03386304     28.46421952     -7.91452426
 C     47.66023747     29.81965855     -8.29140637
 C     49.20023747     29.81965855     -8.29140637
 C     49.82661190     31.17509757     -8.66828847
 C     51.36661190     31.17509757     -8.66828847
 C     51.99298633     32.53053660     -9.04517058
 C     53.53298633     32.53053660     -9.04517058
 H     -0.36333333      0.00000000      1.02766186
 H     -0.36333333     -0.88998127     -0.51383093
 H     -0.36333333      0.88998127     -0.51383093
 H      1.88274777     -0.52778528     -0.88998127
 H      1.88274777     -0.52778528      0.88998127
 H      1.82362666      2.10234972      0.33918240
 H      1.82362666      1.62551760     -1.37572220
 H      4.04912220      0.60852833     -1.09294662
 H      4.04912220      1.08536045      0.62195798
 H      3.99000109      3.45778874     -0.03769970
 H      3.99000109      2.98095663     -1.75260431
 H      6.21549663      1.96396736     -1.46982873
 H      6.21549663      2.44079947      0.24507588
 H      6.15637552      4.81322777     -0.41458181
 H      6.15637552      4.33639565     -2.12948642
 H      8.38187106      3.31940638     -1.84671083
 H      8.38187106      3.79623850     -0.13180623
 H      8.32274995      6.16866679     -0.79146392
 H      8.32274995      5.69183468     -2.50636852
 H     10.54824549      4.67484541     -2.22359294
 H     10.54824549      5.15167752     -0.50868834
 H     10.48912438      7.52410582     -1.16834603
 H     10.48912438      7.04727370     -2.88325063
 H     12.71461992      6.03028443     -2.60047505
 H     12.71461992      6.50711655     -0.88557045
 H     12.65549881      8.87954484     -1.54522814
 H     12.65549881      8.40271272     -3.26013274
 H     14.88099435      7.38572346     -2.97735716
 H     14.88099435      7.86255557     -1.26245255
 H     14.82187324     10.23498387     -1.92211024
 H     14.82187324      9.75815175     -3.63701485
 H     17.04736878      8.74116248     -3.35423926
 H     17.04736878      9.21799460     -1.63933466
 H     16.98824767     11.59042289     -2.29899235
 H     16.98824767     11.11359077     -4.01389695
 H     19.21374321     10.09660150     -3.73112137
 H     19.21374321     10.57343362     -2.01621677
 H     19.15462210     12.94586192     -2.67587446
 H     19.15462210     12.46902980     -4.39077906
 H     21.38011764     11.45204053     -4.10800348
 H     21.38011764     11.92887265     -2.39309888
 H     21.32099654     14.30130094     -3.05275657
 H     21.32099654     13.82446882     -4.76766117
 H     23.54649207     12.80747955     -4.48488559
 H     23.54649207     13.28431167     -2.76998098
 H     23.48737097     15.65673997     -3.42963867
 H     23.48737097     15.17990785     -5.14454328
 H     25.71286650     14.16291858     -4.86176769
 H     25.71286650     14.63975070     -3.14686309
 H     25.65374540     17.01217899     -3.80652078
 H     25.65374540     16.53534687     -5.52142538
 H     27.87924093     15.51835760     -5.23864980
 H     27.87924093     15.99518972     -3.52374520
 H     27.82011983     18.36761802     -4.18340289
 H     27.82011983     17.89078590     -5.89830749
 H     30.04561536     16.87379663     -5.61553191
 H     30.04561536     17.35062875     -3.90062731
 H     29.98649426     19.72305704     -4.56028500
 H     29.98649426     19.24622492     -6.27518960
 H     32.21198979     18.22923565     -5.99241402
 H     32.21198979     18.70606777     -4.27750941
 H     32.15286869     21.07849607     -4.93716710
 H     32.15286869     20.60166395     -6.65207171
 H     34.37836422     19.58467468     -6.36929612
 H     34.37836422     20.06150680     -4.65439152
 H     34.31924312     22.43393509     -5.31404921
 H     34.31924312     21.95710297     -7.02895381
 H     36.54473865     20.94011370     -6.74617823
 H     36.54473865     21.41694582     -5.03127363
 H     36.48561755     23.78937412     -5.69093132
 H     36.48561755     23.31254200     -7.40583592
 H     38.71111308     22.29555273     -7.12306034
 H     38.71111308     22.77238485     -5.40815574
 H     38.65199198     25.14481314     -6.06781343
 H     38.65199198     24.66798102     -7.78271803
 H     40.87748751     23.65099175     -7.49994245
 H     40.87748751     24.12782387     -5.78503784
 H     40.81836641     26.50025217     -6.44469553
 H     40.81836641     26.02342005     -8.15960014
 H     43.04386194     25.00643078     -7.87682455
 H     43.04386194     25.48326290     -6.16191995
 H     42.98474084     27.85569119     -6.82157764
 H     42.98474084     27.37885907     -8.53648224
 H     45.21023637     26.36186980     -8.25370666
 H     45.21023637     26.83870192     -6.53880206
 H     45.15111527     29.21113022     -7.19845975
 H     45.15111527     28.73429810     -8.91336435
 H     47.37661081     27.71730883     -8.63058877
 H     47.37661081     28.19414095     -6.91568417
 H     47.31748970     30.56656924     -7.57534186
 H     47.31748970     30.08973712     -9.29024646
 H     49.54298524     29.07274785     -9.00747088
 H     49.54298524     29.54957997     -7.29256627
 H     49.48386413     31.92200826     -7.95222396
 H     49.48386413     31.44517615     -9.66712857
 H     51.70935967     30.42818688     -9.38435298
 H     51.70935967     30.90501899     -7.66944838
 H     51.65023856     33.27744729     -8.32910607
 H     51.65023856     32.80061517    -10.04401067
 H     53.89631966     32.25523744    -10.03527122
 H     53.89631966     31.81073387     -8.31170421
 H     53.89631966     33.52563847     -8.78853632
152
Step 10000 E=        32.2090
 C      0.00000000      0.00000000      0.00000000
 C      1.54000000      0.00000000      0.00000000
 C      2.16637443     -1.08228824      0.89883660
 C      3.68895578     -0.94077337      1.08137309
 C      4.32786370     -2.06949571      1.91166373
 C      5.86690030     -2.09004381      1.86122459
 C      6.44587134     -2.17290708      0.43661018
 C      7.98430051     -2.22223773      0.38759832
 C      8.59694637     -3.41802596      1.14016431
 C     10.08752722     -3.65404513      0.83346627
 C     10.75771942     -4.69646538      1.74768859
 C      9.96400622     -6.00863713      1.88848871
 C     10.56821896     -7.00075735      2.89953985
 C     10.38709251     -6.58387317      4.37093402
 C      8.91829335     -6.38755067      4.79008376
 C      8.73891957     -5.93628513      6.25151610
 C      8.61654045     -4.41105551      6.42557920
 C      7.23902188     -3.84449561      6.03436000
 C      7.08882686     -2.33277090      6.28680776
 C      5.71635129     -1.76345669      5.88209536
 C      5.61315226     -0.23170903      6.00333513
 C      4.17827294      0.31178783      5.87168213
 C      3.88512149      1.52966571      6.76746988
 C      4.48877232      2.84822394      6.24919402
 C      3.81079123      4.11132078      6.81180225
 C      4.63239664      5.40009377      6.62304649
 C      4.32414892      6.49684557      7.65925055
 C      4.23199598      5.98197707      9.10770429
 C      4.07704870      7.09587810     10.15975745
 C      3.32966217      6.65596267     11.43234843
 C      2.07589048      5.80433358     11.15961334
 C      1.16406615      5.62097088     12.38703116
 C      0.58761201      6.93706058     12.94129511
 C     -0.31217767      6.75515180     14.17777712
 C     -1.23089001      7.95698262     14.46616976
 C     -1.48558330      8.20536629     15.96451448
 C     -2.25680406      9.50476515     16.26180414
 C     -2.29404314      9.88361651     17.75401220
 C     -2.62215315      8.70643589     18.69112991
 C     -2.17976659      8.92501387     20.14993689
 C     -2.28552009      7.66691093     21.03174934
 C     -3.72683656      7.16432678     21.23574936
 C     -3.82466928      5.84670237     22.02688441
 C     -5.26477460      5.33462031     22.21521557
 C     -6.09945172      6.16370565     23.20896182
 C     -7.21368931      5.36481674     23.91028278
 C     -7.55579744      5.87442063     25.32268000
 C     -8.56712937      4.99285614     26.07875657
 C     -8.83889883      3.63410600     25.40678974
 C     -9.80555222      2.72884304     26.19271606
 H     -0.36333333      0.00000000      1.02766186
 H     -0.36333333     -0.88998127     -0.51383093
 H     -0.36333333      0.88998127     -0.51383093
 H      1.88274777     -0.10359238      1.02951085
 H      1.88274777     -1.02249250      0.15853408
 H      3.03874515     -1.48955419      0.38775561
 H      1.82362666     -0.91970494      1.92069307
 H      3.98101342     -1.49984402      1.97032885
 H      4.15857212     -0.99686878      0.09932737
 H      4.12925277     -3.01742187      1.41157405
 H      3.86345225     -2.07463169      2.89776496
 H      6.23497941     -1.13615884      2.23900924
 H      6.18560303     -1.62147616      0.93011077
 H      7.41825771     -1.68041447      0.43263888
 H      7.28149090     -1.47667343      0.36520543
 H      8.34994600     -2.50096400      1.37588727
 H      8.30511381     -3.21875923      0.69111725
 H      8.21031267     -4.33604391      0.69760649
 H      9.66156674     -3.22811747      1.27661299
 H     10.64050023     -2.75600540      1.10886690
 H     10.19327101     -3.83196774     -0.23670278
 H      9.99731104     -5.11154900      2.40919043
 H     10.66991497     -4.35477428      2.77901665
 H      9.84730745     -6.44667162      0.89722327
 H      8.98233315     -5.77299784      2.29945355
 H     10.97160103     -6.43279064      3.73786958
 H     11.58024110     -7.24528062      2.57686421
 H      9.79445909     -5.66944825      4.39763026
 H     10.86526825     -5.61486024      4.51397909
 H      8.38833865     -7.32687910      4.63225439
 H      8.48210402     -5.61371020      4.15841153
 H      9.00695370     -4.88197839      6.32003625
 H      7.94076463     -5.19474848      6.28575207
 H      7.76689925     -4.06592575      5.83643128
 H      9.52129257     -3.94751457      6.03231925
 H      6.48253274     -4.32230352      6.65687408
 H      7.05377677     -4.08597997      4.98771318
 H      6.35812961     -1.93829643      5.58071185
 H      7.24756453     -2.14517759      7.34874518
 H      4.94745223     -2.28429912      6.45272432
 H      5.56817020     -1.94970719      4.81839751
 H      6.37232601      0.21485889      5.36120407
 H      4.75550483      0.00526995      6.63292377
 H      3.56878617     -0.13599783      6.65661135
 H      3.78859668      0.01808647      4.89700684
 H      4.54697543      2.34241401      6.46832181
 H      4.04758732      1.23881190      7.80530845
 H      4.08073377      3.04570954      5.25793019
 H      5.56968385      2.72627906      6.17948241
 H      3.95761341      4.92458932      6.10107197
 H      4.20228092      4.97718270      6.27783693
 H      4.79918553      5.54703728      5.55595274
 H      5.59075122      5.27241515      7.12638997
 H      4.68343793      6.16028917      8.63174280
 H      5.07489298      6.44415914      8.44773485
 H      5.18478165      5.52155673      9.36907103
 H      3.44134675      5.23319469      9.15564952
 H      3.16821810      7.65454506      9.93611002
 H      4.46688990      6.72768017     11.10873274
 H      2.26013070      6.66562405     11.22232678
 H      2.85998294      5.69174521     11.23796193
 H      2.38039827      4.91073061     10.61477506
 H      1.39144065      6.38902675     10.54498962
 H      1.17534804      6.54591161     12.96362233
 H      1.74228126      5.13736642     13.17436464
 H      0.00810777      7.41653925     12.15238761
 H      0.62484922      6.89597794     14.02988393
 H      0.27641067      6.28110499     14.96323456
 H     -1.02650635      7.57797863     14.20589351
 H     -1.86997523      8.11605441     13.59762716
 H     -0.87808396      8.44827335     15.37295601
 H     -1.37969417      9.27284740     16.15783176
 H     -1.36523972      9.27080380     16.16062754
 H     -3.22001422      9.45547944     15.75396843
 H     -1.68114576     10.34263016     15.86848528
 H     -3.09876248      9.32323265     18.22992891
 H     -2.36504148      8.96651443     18.33880534
 H     -1.79643109      8.58618418     19.39243056
 H     -1.82568894      8.62487332     19.43078680
 H     -2.68027921      9.81555029     20.53011053
 H     -1.10114847      9.08171860     20.16118800
 H     -1.65806328      6.88931352     20.59615754
 H     -3.19807492      7.13519266     20.76226955
 H     -4.15125108      6.93453329     20.25842277
 H     -3.84848726      6.88809521     22.28312571
 H     -3.37357493      6.00114324     23.00706904
 H     -3.26774443      5.08073476     21.48722866
 H     -5.70384710      5.17638019     21.23018999
 H     -5.94948079      6.16364092     22.03632385
 H     -6.14550239      7.19014033     22.84507835
 H     -5.59914677      6.14355220     24.17715022
 H     -6.91664570      5.19887681     24.94581600
 H     -7.88353210      4.96846331     23.14718738
 H     -7.87644614      6.91320925     25.24392334
 H     -6.65581807      5.81739741     25.93495894
 H     -8.23390969      3.95700998     26.01482399
 H     -8.40632855      3.95610454     25.78313991
 H     -7.89611022      3.09152427     25.33711410
 H     -9.22679189      3.81865416     24.40500086
 H    -10.82867632      2.92467967     25.87183434
 H     -9.71288528      2.93717656     27.25860066
 H     -9.55928479      1.68393481     26.00398571
152
Step 20000 E=        12.7568
 C      0.00000000      0.00000000      0.00000000
 C      1.54000000      0.00000000      0.00000000
 C      2.16637443     -1.38894946      0.22377324
 C      3.64265019     -1.48654804     -0.20364270
 C      4.58546003     -0.55780356      0.58384909
 C      4.70326737     -0.90667548      2.07917842
 C      5.54517986      0.09472484      2.89157043
 C      5.57934039     -0.19711065      4.40327976
 C      6.45744226      0.77767085      5.20971522
 C      6.56606144      0.43126364      6.70631267
 C      7.49251263      1.37031156      7.50096806
 C      8.98703205      1.01508013      7.39223749
 C      9.87654608      1.72424165      8.43024266
 C      9.70700720      1.19493250      9.86644891
 C     10.07820846     -0.29017422     10.03457873
 C      9.71498216     -0.87451242     11.41233615
 C      8.24072614     -0.67299332     11.80927349
 C      7.23773200     -1.35559441     10.86077019
 C      5.79598230     -0.83002345     10.99012616
 C      4.86670913     -1.26080135      9.84013408
 C      3.58984832     -0.40913210      9.71409459
 C      2.68387565     -0.80930932      8.53482714
 C      1.86658317      0.35703917      7.94893962
 C      2.67832528      1.29386039      7.03513398
 C      1.86414585      2.46742458      6.45940924
 C      2.65174448      3.35364906      5.47660989
 C      3.14206645      4.68079413      6.08477955
 C      4.16907608      4.50830401      7.21928313
 C      4.38363874      5.77532415      8.06794256
 C      5.56162220      5.67608747      9.05491117
 C      5.54104723      4.40861776      9.92938084
 C      6.43680384      4.49522133     11.17906877
 C      6.33282476      3.27300580     12.11018507
 C      7.39679361      3.24109200     13.22308749
 C      8.83511611      3.46687201     12.72123916
 C      9.91822294      3.19837484     13.78255385
 C     11.34476067      3.10015399     13.21076477
 C     12.44386353      2.99356186     14.28417570
 C     13.87579462      3.09601115     13.72679117
 C     14.92489168      2.32540328     14.54968780
 C     16.32907314      2.31021060     13.91751408
 C     17.42762739      1.75836397     14.84500741
 C     18.69556128      1.29201406     14.10577712
 C     19.79101420      0.73285945     15.03256135
 C     21.06512461      0.28114830     14.29486243
 C     22.00880620     -0.58639234     15.14834840
 C     23.31220632     -0.98546685     14.43176788
 C     24.31734561     -1.73111397     15.32915596
 C     25.59945103     -2.17401135     14.60001426
 C     26.65844597     -2.80545601     15.52273163
 H     -0.36333333      0.00000000      1.02766186
 H     -0.36333333     -0.88998127     -0.51383093
 H     -0.36333333      0.88998127     -0.51383093
 H      1.88274777     -0.61260800      0.83386774
 H      1.88274777     -0.96108894     -0.38331713
 H      2.67938143     -1.68503890     -0.69124308
 H      1.82362666     -1.76845636      1.18637310
 H      4.14370761     -0.56126259      0.08076600
 H      4.05996187     -0.47986936     -0.22707386
 H      4.27826258     -0.56436559      1.62964384
 H      4.25383808      0.47031745      0.43861111
 H      5.07710434     -1.92698806      2.16466622
 H      4.80548333      0.02191411      2.64075946
 H      5.11518093      0.17328336      3.89008406
 H      4.98548818      0.36625522      3.78662153
 H      6.60453504     -0.07508833      4.75283162
 H      5.97925032      0.67964535      4.91266269
 H      6.07205254      1.78681113      5.06407645
 H      6.88091175      0.23728506      6.05633013
 H      6.99141114     -0.56823261      6.79678304
 H      5.56336697      0.43946872      7.13367256
 H      8.21746168      0.76072227      8.04036566
 H      8.32137116      1.66089759      6.85548119
 H      9.27415927      1.05876271      6.34164252
 H      9.12612784      0.00029652      7.76501973
 H      9.32038370      1.79830940      9.36474648
 H      9.76937107      2.80053028      8.29527488
 H      9.06338389      0.31584412      9.83400431
 H      8.66562882      1.32739060     10.15985296
 H     11.12067205     -0.41803811      9.74299597
 H      9.44146356     -0.87944764      9.37472059
 H      8.79537536     -0.39971562     11.75437611
 H      8.77691064     -1.42122254     11.31626388
 H      7.61902754     -0.89189450     10.94112999
 H      8.03325136      0.39695935     11.82525769
 H      7.44731014     -2.42522403     10.85243404
 H      7.38174281     -0.94932238      9.85961890
 H      5.36859713     -0.75208127      9.99044274
 H      5.46287767     -0.99181554     12.01529182
 H      4.83357909     -2.35002895      9.81593432
 H      4.56637685     -0.36913880      9.28982651
 H      3.88407689      0.62704792      9.54717987
 H      2.75366314     -1.07471922      9.49987947
 H      2.38973067     -1.85057102      8.66655720
 H      3.25629893     -0.70731115      7.61285753
 H      2.56100774      1.08911010      7.53669374
 H      1.23853875      0.76685209      8.73996022
 H      3.07710940      0.70560070      6.20868268
 H      3.50180986      1.70990520      7.61554751
 H      2.09402813      2.55577470      5.39759551
 H      2.30329356      2.75291507      5.50350942
 H      2.98845759      2.73089327      4.64781588
 H      3.56662100      3.68267489      5.96940088
 H      4.11676496      4.50911375      6.54149461
 H      4.23193693      4.68345690      6.06818918
 H      5.03199849      3.97378016      6.82210663
 H      3.70883176      3.91764784      8.01136927
 H      3.42824496      6.05732294      8.51043483
 H      5.42044224      6.09209838      7.95483820
 H      5.19902476      5.22131366      9.97675925
 H      5.79460929      4.62200239      9.20564822
 H      5.56962565      3.53886314      9.27301952
 H      4.61318744      4.40184422     10.50133392
 H      5.99625068      3.87561675     11.96015973
 H      7.46232753      4.67087263     10.85418759
 H      6.61831754      2.38601086     11.54464653
 H      6.51397038      3.60462649     13.13259105
 H      7.28841160      4.14212103     13.82682587
 H      8.34729476      3.56337652     12.79790490
 H      9.39754092      3.97001713     13.50776527
 H      9.48073320      2.72048278     13.18403685
 H     10.65560771      2.51872497     13.35542419
 H     10.64775856      2.50717394     13.36051227
 H     12.04728524      3.39772766     13.98923066
 H     11.36771369      2.28771065     12.48446664
 H     13.27791787      2.43006560     13.86593493
 H     13.39921781      3.24298900     13.82245683
 H     14.56648852      3.16612401     14.56710428
 H     14.57067960      3.10442977     14.56653160
 H     14.63946167      1.27363613     14.57007348
 H     15.90123022      2.77411512     14.36660107
 H     16.66753384      3.34069428     13.80958941
 H     16.91655232      1.53290785     14.40615368
 H     17.16387670      0.73677320     15.11866390
 H     18.37707914      2.21078243     14.55872277
 H     19.10435586      2.14075369     13.55748154
 H     18.41385266      0.50742284     13.40352583
 H     19.37897284     -0.11731069     15.57619049
 H     20.71647619      1.27356411     14.83442357
 H     21.47355832      1.13847253     13.75981376
 H     20.79073806     -0.49556082     13.58104525
 H     22.39770758     -1.38867628     14.52129482
 H     23.00546896     -0.14658403     15.11185201
 H     24.12005266     -0.98359618     15.16353340
 H     23.05187507     -1.54446591     13.53296440
 H     25.32380080     -1.42254037     15.04643649
 H     25.30517410     -1.65411775     14.87488020
 H     26.08995390     -1.28675699     14.19965613
 H     25.83886346     -3.18992737     14.91417397
 H     26.49606575     -3.88182876     15.57889547
 H     26.57583049     -2.37303007     16.51986878
 H     27.65299005     -2.60844082     15.12252282
152
Step 30000 E=        14.9204
 C      0.00000000      0.00000000      0.00000000
 C      1.54000000      0.00000000      0.00000000
 C      2.16637443      0.63429995      1.25575421
 C      3.33311433     -0.17561207      1.85103610
 C      3.78689716      0.30851553      3.24074888
 C      5.18279949     -0.19373880      3.65402514
 C      5.78861029      0.55709896      4.85437339
 C      7.30803126      0.36254931      5.01283592
 C      7.90631186      1.07599489      6.23948001
 C      9.42775058      0.89187789      6.39089052
 C      9.98237255      1.35436967      7.75107279
 C      9.17937997      0.84298177      8.96156250
 C      9.51400260      1.55938557     10.28307424
 C      9.09061706      3.03963615     10.31775714
 C      7.57668274      3.26233283     10.14452591
 C      7.17966383      4.73623936      9.94062517
 C      7.51786737      5.28851068      8.54340838
 C      6.55793556      4.81827711      7.43480056
 C      7.11718956      4.98510992      6.00966836
 C      6.08709138      4.71574613      4.89704044
 C      6.69221661      4.66642446      3.48176986
 C      5.66464325      4.38114188      2.37077624
 C      6.28406333      3.84156659      1.06817221
 C      6.42789175      2.30874905      1.03097291
 C      6.99779444      1.76503021     -0.29234895
 C      6.86385679      0.23919966     -0.45204193
 C      8.15503234     -0.53919064     -0.13807658
 C      8.46751673     -0.65360747      1.36553982
 C      9.53420971     -1.71124399      1.70490849
 C      9.38207890     -2.32634570      3.10851317
 C      8.11259725     -3.18030396      3.28393163
 C      7.95644025     -3.78893193      4.68991420
 C      6.76907657     -4.76048176      4.82354962
 C      6.09240572     -4.73611193      6.20670640
 C      5.56834877     -3.34923780      6.62329307
 C      4.79343418     -3.34627232      7.95411935
 C      4.32296259     -1.94993392      8.40188666
 C      3.83995276     -1.89038513      9.86296689
 C      4.89438113     -2.34271147     10.89018726
 C      5.94230073     -1.26589733     11.22773106
 C      7.02352911     -1.73327098     12.21975276
 C      8.02885406     -0.63522382     12.61372506
 C      9.38459796     -1.17469653     13.10619606
 C     10.13286963     -2.03059719     12.06738734
 C      9.47502310     -3.39491528     11.78904565
 C      9.79375539     -3.97166602     10.39715186
 C      9.17183590     -3.17827330      9.23295938
 C      9.58656291     -3.68346853      7.83854937
 C     11.07341972     -3.45756368      7.50715259
 C     11.37621958     -3.39356445      5.99857168
 H     -0.36333333      0.00000000      1.02766186
 H     -0.36333333     -0.88998127     -0.51383093
 H     -0.36333333      0.88998127     -0.51383093
 H      1.88274777      0.98033957      0.33099590
 H      1.88274777     -0.07392783      1.03206523
 H      2.24971075     -0.13522117      2.02321255
 H      1.82362666      1.66664994      1.32559308
 H      3.84135746      0.44639311      2.58785256
 H      4.02603956      0.51942712      2.32524613
 H      4.50900418     -0.40701537      3.63403882
 H      4.87097936      0.42114760      3.22733991
 H      5.90514502      0.15605550      2.91648810
 H      5.29794512     -0.04159276      4.72719477
 H      6.64714601     -0.00935457      5.21513208
 H      6.47455849     -0.11586389      5.36885963
 H      7.74717273      1.31661370      5.30441079
 H      7.58699196      0.65309625      6.02568507
 H      7.41627459      0.68996735      7.13331792
 H      8.94440866      1.32457682      6.01888522
 H      9.91122127      1.28456908      5.49637963
 H      9.63692773     -0.17425673      6.47865096
 H      9.14722399      1.69156981      8.36501331
 H     10.02997177      0.49012850      8.41358431
 H      9.18577152     -0.24681394      8.94145129
 H      8.15436684      1.20207313      8.86935900
 H      9.79208945      2.58819620     10.05434647
 H     10.57461573      1.41769878     10.49073896
 H      8.52519118      3.25573306      9.41128282
 H      9.59959758      3.56079668      9.50693623
 H      7.05905473      2.73886275     10.94835444
 H      7.27606930      2.84225709      9.18469888
 H      7.74761237      5.13078545      9.09808862
 H      6.68545254      4.82742613      8.97339192
 H      7.01773632      4.66840912      7.79947089
 H      8.59337637      5.19895393      8.39056866
 H      5.54954755      5.13965055      7.69551636
 H      6.59232940      3.72971571      7.39062877
 H      6.53954193      4.34980786      5.33824115
 H      7.33585721      6.04074624      5.84868257
 H      5.25690397      5.41074654      5.02299003
 H      6.48749071      3.94491666      4.23855559
 H      7.43972911      3.87354108      3.45605989
 H      6.02957450      5.20788457      2.80662070
 H      4.90879020      5.16617923      2.39319348
 H      5.19547847      3.41906246      2.57665876
 H      6.57555432      2.80401886      1.23135220
 H      6.99553302      4.57869326      0.69594222
 H      5.43753244      1.86863794      1.14755185
 H      7.06141345      2.00362804      1.86383030
 H      6.31059615      1.01178345     -0.67767716
 H      6.49599354      0.82481273     -0.52101235
 H      5.80604494     -0.01904818     -0.40262390
 H      7.27889425     -0.23617837      0.43669854
 H      8.08226293     -0.92838267      0.87746967
 H      7.91718576     -1.32079644      0.58346439
 H      7.63433889     -1.16171736      1.85106946
 H      8.56638018      0.35268337      1.77260833
 H     10.45445664     -1.44980740      1.18251353
 H      9.02545623     -2.62279273      2.01851462
 H      8.32378222     -2.32720380      3.36948710
 H      8.85450065     -3.27521944      3.01156052
 H      8.14146746     -3.99089744      2.55578006
 H      7.24537592     -2.54892513      3.09057203
 H      6.91209191     -4.06877759      4.82819996
 H      8.82345177     -4.41883202      4.88895413
 H      6.90992573     -5.57382143      4.11169283
 H      5.97798232     -4.26012704      5.38204317
 H      6.31065089     -3.77790766      6.67820786
 H      5.62163748     -3.76221124      6.34085072
 H      4.56015422     -3.46876715      7.01997491
 H      5.63691681     -3.26860201      7.70814159
 H      5.07601936     -2.45432613      8.51329518
 H      5.08702907     -2.46196773      8.51972295
 H      3.67711002     -2.06851864      9.27189363
 H      4.56166315     -1.83038401      9.45868837
 H      4.25253376     -2.74726219     10.39554424
 H      4.69635343     -2.06437248     10.51443162
 H      5.85789747     -1.92427121     10.59925081
 H      5.84502713     -1.87490530     10.63419983