62
Step 1 E=         6.9931
 C      0.00000000      0.00000000      0.00000000
 C      1.54000000      0.00000000      0.00000000
 C      2.16637443      1.40686000      0.00000000
 C      3.66258126      1.42635798      0.36412216
 C      4.37444288      2.74721905      0.01745361
 C      5.74756620      2.91509470      0.69417372
 C      6.61420783      4.03231159      0.08396170
 C      7.80827375      4.44933657      0.96253826
 C      8.86966735      5.28384156      0.22183248
 C      9.86262187      6.00358967      1.15328510
 C     11.12184635      6.52987085      0.43985548
 C     11.92973321      7.54856924      1.26518717
 C     13.35239120      7.79950336      0.73163652
 C     14.02631261      9.05674727      1.31195340
 C     15.54704658      9.11737171      1.07680900
 C     16.16348261     10.50756727      1.31963181
 C     17.69835589     10.49897091      1.44489208
 C     18.34467642     11.89133844      1.32167505
 C     19.80707386     11.94772305      1.80106479
 C     20.56498756     13.21107141      1.35260327
 H     -0.36333333      0.00000000      1.02766186
 H     -0.36333333     -0.88998127     -0.51383093
 H     -0.36333333      0.88998127     -0.51383093
 H      1.88274777     -0.52778528     -0.88998127
 H      1.88274777     -0.52778528      0.88998127
 H      1.62962592      2.02101998      0.72305501
 H      2.05048553      1.83364121     -0.99625678
 H      4.15717254      0.61860736     -0.17533905
 H      3.75648615      1.25769264      1.43689142
 H      3.73528646      3.57318737      0.32947188
 H      4.51745299      2.78633854     -1.06241572
 H      6.29022101      1.97384542      0.60656354
 H      5.58492586      3.14405090      1.74737226
 H      5.98363611      4.90706985     -0.07502660
 H      6.99911231      3.68290906     -0.87409175
 H      8.28610715      3.54634474      1.34251327
 H      7.42998472      5.03909210      1.79751480
 H      8.35704665      6.03512878     -0.37890668
 H      9.43363806      4.61865673     -0.43205296
 H     10.17502842      5.30336409      1.92800201
 H      9.35043231      6.84897395      1.61272744
 H     10.81419884      7.00881589     -0.48969531
 H     11.76813359      5.68146395      0.21486982
 H     12.00744527      7.17720748      2.28702438
 H     11.39075684      8.49598644      1.26292277
 H     13.29790978      7.90882650     -0.35149793
 H     13.96865155      6.93514349      0.97903338
 H     13.84452212      9.07804827      2.38647585
 H     13.57273755      9.93327282      0.84927359
 H     15.74596536      8.82981289      0.04441313
 H     16.02662478      8.40735002      1.75058489
 H     15.74654059     10.91094553      2.24242395
 H     15.89131889     11.15370606      0.48504715
 H     18.10290589      9.86245378      0.65794529
 H     17.96048921     10.08434135      2.41827199
 H     17.76148007     12.59382929      1.91706452
 H     18.31556825     12.19123888      0.27414823
 H     20.33053216     11.07627652      1.40778074
 H     19.81219144     11.91358169      2.89051795
 H     20.74380270     13.85291461      2.21525179
 H     19.96906562     13.75001455      0.61604551
 H     21.51853978     12.92447320      0.90909495
62
Step 10000 E=         7.0004
 C      0.00000000      0.00000000      0.00000000
 C      1.54000000      0.00000000      0.00000000
 C      2.16637443      1.40670294     -0.02102173
 C      3.70173322      1.41055402      0.09838744
 C      4.43520762      1.29213005     -1.25053475
 C      5.92397041      0.91927655     -1.12339061
 C      6.62793808      0.68296051     -2.47253265
 C      8.06944639      0.15672720     -2.34317933
 C      8.82063010      0.05192913     -3.68345557
 C     10.24889750     -0.51029029     -3.55870958
 C     11.03942645     -0.51099454     -4.88032355
 C     11.76675343      0.81386676     -5.17585358
 C     12.52544442      0.82652077     -6.51593860
 C     13.49288295     -0.35756979     -6.69922043
 C     14.28485624     -0.32079531     -8.01945751
 C     15.06983219     -1.61228975     -8.31518521
 C     16.25646148     -1.41764944     -9.27727984
 C     17.38915415     -0.54444905     -8.70620331
 C     18.62555447     -0.44656319     -9.61907384
 C     19.75636370      0.43046705     -9.05013759
 H     -0.36333333      0.00000000      1.02766186
 H     -0.36333333     -0.88998127     -0.51383093
 H     -0.36333333      0.88998127     -0.51383093
 H      1.88274777      0.70802899      0.75453225
 H      1.88274777      0.75136954      0.71138441
 H      1.62962592      2.03159846      0.69277559
 H      2.05048553      1.81855012     -1.02354438
 H      4.12270183      1.54273266     -0.89831424
 H      4.12058670      1.66555342     -0.87507908
 H      3.95064057      1.95882451     -1.96384624
 H      4.91588722      0.31483813     -1.29466672
 H      6.22140267      0.38378776     -2.02499241
 H      6.50045918      1.58724063     -1.76337864
 H      7.70052634      0.81072427     -2.32648185
 H      7.06766554     -0.31432254     -2.45963828
 H      8.29503648     -0.44480067     -3.22373219
 H      8.55479543      0.24426583     -3.31522527
 H      8.63008851      0.96023764     -4.25509316
 H      9.58723476     -0.71697241     -3.58749866
 H     10.47399961     -1.07764851     -4.46177862
 H     10.86988046     -0.04086306     -4.32167632
 H     11.28465183      0.52042603     -5.13357464
 H     10.65381648     -1.31286420     -5.50993454
 H     12.73774549      0.58163820     -5.61328278
 H     11.02512158      1.55049649     -5.48481772
 H     13.57902340      0.63219554     -6.31516752
 H     12.72631702     -0.20484329     -6.80583232
 H     14.02021362     -0.22624071     -7.64408817
 H     14.34508962     -0.01611060     -7.28679970
 H     15.30757179     -0.63730180     -7.81457576
 H     15.29093490     -0.69297962     -7.82610664
 H     14.42318434     -2.46313716     -8.10069690
 H     15.99606610     -1.34191659     -8.82222475
 H     16.46645139     -0.35061438     -9.35103907
 H     17.13479365     -1.15224915     -8.68889623
 H     18.30551955     -1.13461131     -8.69709576
 H     17.67147451      0.18824607     -9.46221461
 H     18.28471303     -0.28249678    -10.64133081
 H     19.51757158     -0.50417519     -8.99530598
 H     20.59566067     -0.20172822     -8.76029326
 H     19.39168563      0.97273096     -8.17775019
 H     20.08212275      1.14115359     -9.80968067
62
Step 20000 E=        12.6946
 C      0.00000000      0.00000000      0.00000000
 C      1.54000000      0.00000000      0.00000000
 C      2.16637443     -0.28216523      1.37827351
 C      3.67767550      0.00490945      1.45008709
 C      4.41229920     -0.77845866      2.55383635
 C      3.82933528     -2.17835791      2.82223000
 C      4.33471054     -2.82836154      4.12364889
 C      3.54585613     -4.08205922      4.54501674
 C      4.05613751     -5.38719591      3.90640017
 C      3.63967623     -5.56913869      2.43498696
 C      2.13638365     -5.83938281      2.23831583
 C      1.76801141     -6.33227096      0.82659236
 C      0.25493753     -6.33742541      0.53992032
 C     -0.17534873     -7.35213518     -0.53563434
 C     -1.66982260     -7.28212177     -0.90066305
 C     -2.09814586     -5.94492484     -1.53315301
 C     -3.53799989     -5.94314520     -2.07942878
 C     -4.53280719     -6.75138951     -1.22578976
 C     -5.92483858     -6.90738774     -1.86572192
 C     -6.98095878     -7.51916231     -0.92660425
 H     -0.36333333      0.00000000      1.02766186
 H     -0.36333333     -0.88998127     -0.51383093
 H     -0.36333333      0.88998127     -0.51383093
 H      1.88274777     -0.88921063      0.52908263
 H      1.88274777     -0.85639958      0.58069246
 H      3.20097453     -0.59054219      1.22791965
 H      2.87857881      0.51255720      1.60026717
 H      4.13785718     -0.74112883      2.09797575
 H      4.15571479     -0.80930998      1.99472014
 H      3.68110079     -1.38494407      3.08827469
 H      4.70726066     -1.74643832      2.14872757
 H      4.51176074     -2.71290055      3.48303229
 H      3.41621815     -2.18999736      3.83084229
 H      3.49629881     -3.33479408      4.60186626
 H      4.46503328     -3.89577745      3.94549370
 H      3.50693565     -4.76406692      3.69563420
 H      4.05964882     -4.95884597      4.15085680
 H      5.14464543     -5.39375035      3.96303541
 H      4.10962269     -5.24271683      2.82734265
 H      2.87197079     -6.34154990      2.38906015
 H      2.60011876     -5.25798305      2.33201885
 H      1.93880198     -5.91530580      1.16906508
 H      2.02637213     -6.71782114      1.60243568
 H      0.88311386     -6.96396747      0.90415419
 H      1.06946831     -5.62060869      0.38650789
 H      0.11074067     -6.32613226     -0.54044061
 H     -0.03372652     -7.34492311      0.24038494
 H     -1.23582749     -7.20546412     -0.74050601
 H     -0.99400255     -6.91732736     -1.10908712
 H     -2.07981102     -6.35895892     -0.49105366
 H     -2.06609486     -6.33213476     -0.54206443
 H     -1.35076820     -5.66128871     -2.27415043
 H     -3.17591840     -5.97140318     -1.69379316
 H     -3.88346051     -6.97526463     -2.13847494
 H     -4.21645579     -6.17407400     -1.25816787
 H     -5.43118859     -6.15032723     -1.08530843
 H     -4.95656337     -7.53982601     -1.84780149
 H     -6.33151793     -7.87452039     -1.57014396
 H     -6.67515308     -6.62484845     -1.12727781
 H     -7.70580270     -6.75435643     -0.64772565
 H     -6.49244316     -7.90089748     -0.03009393
 H     -7.49214414     -8.33524229     -1.43729300
62
Step 30000 E=        11.6253
 C      0.00000000      0.00000000      0.00000000
 C      1.54000000      0.00000000      0.00000000
 C      2.16637443      1.25673063      0.63236318
 C      3.70525139      1.23074750      0.68511332
 C      4.32908548      2.45719759      1.37667039
 C      5.82914084      2.30417119      1.68974679
 C      6.12623223      1.42029112      2.91534572
 C      7.59709476      1.45422540      3.37033132
 C      7.79750816      1.14504577      4.86560468
 C      7.68619375      2.37865497      5.78070983
 C      8.53328013      2.28550311      7.06342858
 C     10.05098693      2.22719986      6.80893538
 C     10.87763668      1.81806707      8.04216714
 C     12.40029059      1.84799762      7.81362998
 C     13.20516648      2.36032451      9.02247073
 C     12.75240587      3.73922027      9.53749917
 C     12.80457507      4.85275980      8.47499830
 C     12.28079688      6.21431818      8.96836954
 C     10.84450642      6.16959095      9.52214672
 C      9.80664865      5.61704299      8.52759054
 H     -0.36333333      0.00000000      1.02766186
 H     -0.36333333     -0.88998127     -0.51383093
 H     -0.36333333      0.88998127     -0.51383093
 H      1.88274777      0.27846278      0.99653522
 H      1.88274777      0.33685103      0.97834317
 H      3.09622271      0.96701006      1.12179568
 H      3.04887170      1.52834799      0.05312007
 H      4.03791915      2.01031451      1.37046537
 H      4.03337590      1.92336134      1.46017484
 H      5.09462836      2.10759116      2.06936039
 H      5.19804387      2.77154618      0.79857327
 H      5.93464036      2.04368526      2.74289300
 H      6.05472120      1.24120697      1.77530719
 H      7.16763785      1.10251872      2.86440429
 H      6.67625694      2.01699736      3.64302318
 H      7.63172083      1.83823756      4.38985851
 H      7.64608738      1.09636631      4.39874593
 H      7.17506187      0.28865942      5.12495587
 H      7.29151634      1.91658066      5.44595474
 H      7.69994519      2.03942152      6.81648566
 H      8.61541776      2.47362704      6.34251321
 H      9.54229466      1.98013366      6.78641023
 H      9.43586826      2.88001520      6.92204245
 H     10.56038203      2.64611177      7.67676570
 H     10.42786135      1.28174159      7.19903067
 H     11.64010414      1.10738243      7.72330869
 H     11.82703196      2.35265637      8.01113664
 H     12.87746436      2.19784232      8.72906096
 H     12.89386438      1.67301637      8.76959362
 H     13.52831262      3.37979981      8.81188420
 H     13.47826675      3.39913224      8.83701257
 H     11.66308270      3.75063732      9.57416900
 H     12.62242895      4.39958009      8.68010141
 H     11.82226178      5.32216976      8.42194280
 H     12.80493410      5.81511969      8.98682183
 H     11.33703947      6.42170239      8.46397512
 H     11.90237868      6.08881088      9.98283865
 H     10.16465478      6.50545399      8.73914112
 H     10.38292702      5.23525851      9.20266693
 H      9.47062798      4.63523174      8.86111230
 H     10.26011958      5.52981225      7.54024312
 H      8.95461076      6.29499584      8.47747706
62
Step 40000 E=         8.6184
 C      0.00000000      0.00000000      0.00000000
 C      1.54000000      0.00000000      0.00000000
 C      2.16637443      1.36384681      0.34522014
 C      3.70623820      1.36893181      0.32537824
 C      4.31540774      1.14583553     -1.07131089
 C      5.85509604      1.11859102     -1.08606526
 C      6.45966266      0.59077494     -2.40041277
 C      6.06594427      1.40921297     -3.64409480
 C      6.50841883      0.77613646     -4.97639747
 C      6.07618852      1.57181853     -6.22205674
 C      4.55693388      1.80333016     -6.32139294
 C      4.12564184      2.60732429     -7.56203012
 C      4.78112122      3.99691054     -7.66689598
 C      4.86760092      4.54178950     -9.10468184
 C      3.50624613      4.93241798     -9.70943180
 C      2.83806087      6.13757955     -9.02188976
 C      1.42084580      6.44716051     -9.53886277
 C      0.95559960      7.88954427     -9.26559541
 C     -0.46130456      8.19936021     -9.78327936
 C     -0.63795560      7.97609138    -11.29673416
 H     -0.36333333      0.00000000      1.02766186
 H     -0.36333333     -0.88998127     -0.51383093
 H     -0.36333333      0.88998127     -0.51383093
 H      1.88274777      0.48765031      0.91259035
 H      1.88274777      0.54071377      0.88218626
 H      3.12417112      1.18710425      0.83459480
 H      3.01477748      1.52929844     -0.31881150
 H      4.03546471      1.42375472     -0.71226541
 H      4.03523516      1.54798282     -0.69824363
 H      5.24622321      1.70960821     -1.13330229
 H      4.99874427      0.29844347     -1.01583237
 H      6.17784251      0.38371053     -1.82355111
 H      6.19849336      1.63638450     -1.98164786
 H      5.78887313      0.85674457     -3.21735925
 H      6.91753214      1.42779656     -2.92752788
 H      6.85250760      1.29830423     -4.39049776
 H      6.30216378      0.82065335     -4.53060364
 H      5.64954606      0.75372296     -5.64716957
 H      6.56353026      1.56332501     -5.72832627
 H      5.13388504      1.15914559     -6.58242486
 H      5.15537072      2.10503567     -5.98567981
 H      4.37720066      2.58886102     -7.05538016
 H      4.26771968      1.73536228     -7.37012337
 H      3.98402838      3.64642796     -7.26486150
 H      5.02105875      2.99718710     -8.04611229
 H      5.51102456      3.97139570     -8.47602521
 H      4.34217071      4.51968595     -8.51667732
 H      3.86288210      4.81168601     -9.42994476
 H      4.06290004      5.26314369     -9.24682480
 H      2.78437505      5.02426092     -8.89791037
 H      2.79890691      5.08153443     -8.89362819
 H      3.59543625      6.90540749     -8.86402028
 H      1.78301773      6.14673440     -9.29556872
 H      0.84781697      6.88962130     -8.72402143
 H      1.33085716      7.52582792     -9.66723198
 H      0.64533235      8.33452591    -10.21101890
 H     -0.01672276      7.84884868     -8.77464420
 H     -0.37146728      8.73135808    -10.73038417
 H     -0.73805505      7.43104607    -10.50522295
 H     -1.26957091      7.10363468    -11.46401067
 H      0.33687913      7.81235681    -11.75606871
 H     -1.10620727      8.85425469    -11.74133461
62
Step 50000 E=         8.2706
 C      0.00000000      0.00000000      0.00000000
 C      1.54000000      0.00000000      0.00000000
 C      2.16637443      1.25142238     -0.64280409
 C      3.70369884      1.21102609     -0.72405550
 C      4.34500672      2.55143848     -1.12855374
 C      5.37525825      2.43455430     -2.26720201
 C      4.76327807      2.05879136     -3.62950978
 C      5.75650804      2.13250480     -4.80409931
 C      5.10159489      1.97522001     -6.18900012
 C      5.99516888      2.42630167     -7.35932095
 C      5.35024457      2.24476656     -8.74594190
 C      5.06796368      0.77733909     -9.11819734
 C      4.17422055      0.60711146    -10.36071325
 C      2.74551480      1.15418621    -10.18433556
 C      1.88198357      1.07252354    -11.45683115
 C      0.37215833      1.23512944    -11.20073141
 C     -0.50246266      1.01130994    -12.44834631
 C     -2.00015766      0.83005547    -12.13906245
 C     -2.64467119      2.03768803    -11.43349466
 C     -4.10917850      1.81034246    -11.01500650
 H     -0.36333333      0.00000000      1.02766186
 H     -0.36333333     -0.88998127     -0.51383093
 H     -0.36333333      0.88998127     -0.51383093
 H      1.88274777      0.96924937      0.36218728
 H      1.88274777      0.98895416      0.30429202
 H      3.14677954      1.41271209     -0.19459493
 H      2.98266123      0.93187529     -1.29062006
 H      4.06999394      2.23490688     -0.79886215
 H      4.07656941      2.23404324     -0.67402105
 H      5.37814614      2.36286117     -1.42037822
 H      4.21550008      2.68300391     -2.20280630
 H      4.95837751      1.79100012     -3.04189451
 H      5.03637766      3.05000275     -3.10055856
 H      5.31013154      2.58935453     -4.40896729
 H      5.41726280      1.33112637     -4.11003829
 H      5.41445962      1.45367422     -5.58531115
 H      5.18761074      2.14443739     -5.73378393
 H      5.23981231      2.90484879     -6.74107463
 H      5.89231364      1.88780422     -6.93413255
 H      5.84729270      1.73558628     -8.18946846
 H      5.35134210      2.73820633     -8.18169712
 H      5.43829585      1.19619597     -9.03027742
 H      4.62447851      1.43397135     -8.68289625
 H      4.02317770      0.69458602     -9.41765386
 H      5.25487713      0.65224460    -10.18474070
 H      3.21235163      0.20788826    -10.03895400
 H      3.45801294      1.42848540    -10.38288316
 H      2.21162208      1.02841196    -11.12626943
 H      2.08197525      0.60024479    -10.84838689
 H      1.07369627      0.36354221    -11.27761868
 H      1.04063382      0.40865054    -11.25807693
 H     -0.03044269      1.91934025    -11.94763702
 H     -0.16565230      0.85648877    -12.06992124
 H     -1.11387766      0.12410027    -12.28363230
 H     -1.52809518      1.28575233    -12.20164951
 H     -2.15458076      1.00947352    -11.07507812
 H     -2.53818445      1.69259373    -12.53232435
 H     -3.65887326      2.15629366    -11.81484342
 H     -3.24668559      1.66839737    -10.60325188
 H     -4.16902939      1.73307400     -9.92939724
 H     -4.47692696      0.88852806    -11.46569406
 H     -4.71814600      2.64851189    -11.35372553
62
Step 60000 E=        12.2836
 C      0.00000000      0.00000000      0.00000000
 C      1.54000000      0.00000000      0.00000000
 C      2.16637443      1.10738773     -0.86772547
 C      3.69416644      0.99235104     -1.02334726
 C      4.39472566      2.32860609     -1.33195577
 C      5.93101988      2.23373828     -1.38094708
 C      6.62259454      3.51894412     -1.87244524
 C      8.05179569      3.29801458     -2.40176008
 C      8.90668603      4.57802384     -2.45012114
 C      8.43929446      5.60415635     -3.49902400
 C      8.49177071      7.06460880     -3.01330300
 C      7.15763718      7.58448475     -2.44636675
 C      7.21068858      9.04425750     -1.95866903
 C      8.24557758      9.29582000     -0.84631968
 C      7.85622194      8.69778067      0.51836018
 C      6.70867851      9.44344313      1.22456947
 C      6.21213404      8.75563600      2.50985736
 C      5.30427674      9.64115035      3.38350458
 C      4.63156341      8.89147927      4.54842949
 C      3.84184752      7.64197969      4.11634199
 H     -0.36333333      0.00000000      1.02766186
 H     -0.36333333     -0.88998127     -0.51383093
 H     -0.36333333      0.88998127     -0.51383093
 H      1.88274777      1.02023216      0.17248277
 H      1.88274777      1.02864028      0.11190684
 H      3.17616310      1.29775443     -0.50414966
 H      2.93245035      0.65645036     -1.49850528
 H      4.11563767      1.99756422     -1.02044012
 H      4.12726785      1.98455573     -0.89664673
 H      5.33730377      2.35571522     -0.78522770
 H      5.05766553      2.17923128     -2.18418689
 H      6.29737767      2.97139464     -2.09491141
 H      6.34439457      3.08370659     -0.83801501
 H      7.69861557      3.39874999     -1.74661952
 H      7.03854300      3.32753428     -2.86161112
 H      8.34876082      4.18200692     -2.96609089
 H      8.61180568      4.22431874     -2.27350483
 H      9.15454012      4.78552330     -3.49108815
 H      8.29529715      5.38333979     -2.85726959
 H      7.88881902      6.39254454     -2.98568117
 H      8.94921307      6.54801206     -3.30610069
 H      7.46935100      7.42169397     -2.88981976
 H      7.87834181      7.14974997     -2.11633256
 H      7.37177071      8.18569883     -1.56274440
 H      6.94576460      8.55211310     -2.90123529
 H      7.21143373      9.04165652     -0.86867239
 H      8.22857257      9.26045182     -1.63421226
 H      7.89238412      8.81450329      0.06564995
 H      8.21241834      8.45687159     -0.15121823
 H      7.82819034      9.50460723      1.25071606
 H      7.77089753      9.51224208      1.23771569
 H      5.90351650      8.73339396      1.41336649
 H      6.57303660      9.00584937      2.21361597
 H      6.42305544      9.41266345      3.35361508
 H      5.30730720      9.26397204      2.84299825
 H      4.31857626      9.17843446      3.43237756
 H      5.59950140      9.51251037      4.42484706
 H      3.63198290      8.59313929      4.23230917
 H      4.75316297      7.82101064      4.38286846
 H      4.36507007      6.74703066      4.45309770
 H      3.75484433      7.62484381      3.02995494
 H      2.84667340      7.66967852      4.56014515
62
Step 70000 E=         7.1364
 C      0.00000000      0.00000000      0.00000000
 C      1.54000000      0.00000000      0.00000000
 C      2.16637443     -0.57868438     -1.28233360
 C      3.70461287     -0.51189105     -1.31333618
 C      4.32697676     -1.01390809     -2.62948286
 C      3.79817574     -0.29723433     -3.88580615
 C      4.60288605     -0.59802784     -5.16391592
 C      4.12269892      0.17892887     -6.40381857
 C      4.99427430     -0.03738188     -7.65488452
 C      5.09876437     -1.50830675     -8.09880100
 C      3.80105617     -2.07305008     -8.70594052
 C      3.91077959     -3.53861465     -9.16602883
 C      2.60636972     -4.11062342     -9.75162327
 C      2.79885317     -5.40535826    -10.56292581
 C      1.56448859     -6.32611328    -10.57534753
 C      1.85657352     -7.75879718    -11.05877614
 C      0.65557769     -8.71583546    -10.94350798
 C      0.84179354    -10.04779463    -11.69371356
 C      1.32821156     -9.88607765    -13.14589989
 C      1.11972718    -11.13719299    -14.01930969
 H     -0.36333333      0.00000000      1.02766186
 H     -0.36333333     -0.88998127     -0.51383093
 H     -0.36333333      0.88998127     -0.51383093
 H      1.88274777      0.41074831     -0.94968932
 H      1.88274777      0.35392383     -0.97229722
 H      3.09070716     -0.03823079     -1.48634076
 H      3.05499696     -1.14532451     -1.00418082
 H      4.03417079     -0.67533945     -2.33938501
 H      4.02850029     -0.55123530     -2.35335972
 H      3.56735262     -0.96213264     -3.40947675
 H      4.73244400     -0.15608810     -3.16599118
 H      4.61346029     -0.22020103     -4.60516487
 H      3.65574535     -1.04067613     -4.67009428
 H      3.95039903     -0.44545108     -6.02361414
 H      4.89214736      0.34980298     -5.61783731
 H      4.99806570      0.48582192     -6.97622545
 H      4.71754914     -0.13995807     -7.25971829
 H      5.68411703     -0.85716618     -7.45445821
 H      4.67534554     -0.96020953     -8.13941891
 H      4.15234534     -2.00137369     -7.87681900
 H      4.39687528     -1.67011572     -8.91688997
 H      4.04350949     -2.99312308     -9.23771309
 H      3.70204247     -3.11335939     -8.39601660
 H      2.99693075     -4.05784061     -8.87726475
 H      3.49044782     -3.61544217    -10.16878440
 H      2.78285752     -4.36623664    -10.79642657
 H      2.70281738     -5.19484386     -9.80875367
 H      1.86771774     -5.97113324    -10.53153327
 H      1.83417303     -5.69565150    -10.97912537
 H      1.50917347     -6.81207585    -11.54945257
 H      1.54192229     -6.85627562    -11.52746026
 H      1.54368171     -8.45390521    -10.27965898
 H      0.91007916     -8.29364636    -11.13741959
 H      0.37520948     -9.03637332    -11.94687688
 H      1.00492505     -9.72944181    -11.14012586
 H      0.26418679    -10.00475384    -12.61708669
 H      1.84278016    -10.06125880    -12.12492638
 H      1.83803046    -10.80327444    -13.44074687
 H      0.59728031    -10.35283959    -13.80618226
 H      0.33485200    -10.94326633    -14.75037974
 H      0.82877396    -11.97671272    -13.38792008
 H      2.04799196    -11.37712961    -14.53782191
62
Step 80000 E=         9.4167
 C      0.00000000      0.00000000      0.00000000
 C      1.54000000      0.00000000      0.00000000
 C      2.16637443      1.20550469     -0.72526790
 C      2.00711136      1.16717968     -2.25653093
 C      2.64751087      2.36453235     -2.98305350
 C      2.27711133      3.73307849     -2.38181676
 C      2.59830128      4.92777659     -3.29895006
 C      2.55265005      6.29314699     -2.58811982
 C      2.61150873      7.49920566     -3.54392218
 C      2.36458936      8.85530880     -2.85717980
 C      2.89334734     10.06467420     -3.65055885
 C      2.64351824     11.42103029     -2.96537013
 C      2.88051496     12.63759298     -3.87937658
 C      2.15412372     12.55373945     -5.23470841
 C      2.84207201     13.34310047     -6.36397203
 C      2.69660433     12.70054933     -7.75593726
 C      3.67003985     13.26109700     -8.80941227
 C      3.68211129     12.47373507    -10.13286060
 C      4.68574843     13.00901383    -11.17102684
 C      4.44344001     12.49170034    -12.60115739
 H     -0.36333333      0.00000000      1.02766186
 H     -0.36333333     -0.88998127     -0.51383093
 H     -0.36333333      0.88998127     -0.51383093
 H      1.88274777      0.99135346      0.29638200
 H      1.88274777      1.00713190      0.23729580
 H      2.50342158      0.87677946     -1.70834416
 H      1.49247156      1.51226327     -1.52517670
 H      2.66623386      1.92013717     -2.68863340
 H      2.75275454      1.83014860     -2.69537994
 H      1.94615892      3.19839884     -2.95352206
 H      3.17665247      2.96924438     -2.24655331
 H      2.88536641      4.49650259     -2.86690377
 H      1.66602758      4.27159773     -3.10616039
 H      2.08151048      5.80585248     -2.91163883
 H      3.34856005      5.54616099     -2.80618997
 H      3.17600366      6.99137578     -3.14669553
 H      2.46577235      7.07150346     -3.34621841
 H      1.73743510      8.12428494     -3.36124434
 H      2.86429714      8.38560178     -2.96211471
 H      3.22987649      9.49325128     -3.03720085
 H      2.28918905      9.62153414     -3.62874544
 H      2.44305677     10.96798616     -3.23901795
 H      3.29184055     10.79135519     -2.94257728
 H      3.42138862     12.11468704     -3.28452213
 H      2.01148377     12.02340146     -3.61788940
 H      3.11840673     12.27406176     -4.87905281
 H      1.99347175     12.78065396     -4.49645673
 H      2.72960663     13.11926955     -5.96757616
 H      2.89875128     12.62415164     -6.02759675
 H      3.46114699     12.65269109     -6.93684292
 H      3.41460258     12.64277596     -6.97212853
 H      2.60138220     13.49773719     -8.49317823
 H      3.55007819     13.00174095     -8.36336295
 H      4.29424195     12.44304875     -9.16895198
 H      3.34193693     12.92435840     -9.79280212
 H      3.52405614     13.17629455    -10.95110796
 H      4.71125492     12.19073822    -10.35394015
 H      4.96799535     12.18789355    -11.82996399
 H      4.13986890     13.24894888    -12.08346682
 H      4.07335252     13.30590611    -13.22421775
 H      3.70665841     11.68878327    -12.57713520
 H      5.37880509     12.11426118    -13.01435449
62
Step 90000 E=         8.5399
 C      0.00000000      0.00000000      0.00000000
 C      1.54000000      0.00000000      0.00000000
 C      2.16637443     -0.07296713      1.40496650
 C      3.69804327      0.08655270      1.41696546
 C      4.31127204      0.13930384      2.82861973
 C      5.80752525      0.50322202      2.84836537
 C      6.09374018      1.99182280      2.57679822
 C      5.69252836      2.45949189      1.16544614
 C      6.81352018      2.32365415      0.11829503
 C      6.40994572      2.78433733     -1.29468008
 C      7.54296395      2.68598981     -2.33304296
 C      7.05331723      2.64694214     -3.79260500
 C      8.14765427      2.96279317     -4.82907235
 C      7.70816586      2.74781217     -6.28928916
 C      8.71009787      3.28135232     -7.32999429
 C      8.38092068      2.87959526     -8.77976450
 C      9.51033011      3.17625487     -9.78377018
 C      9.35991135      2.44393369    -11.13012819
 C     10.69141826      2.20804318    -11.86704409
 C     11.47378229      3.49817162    -12.17538668
 H     -0.36333333      0.00000000      1.02766186
 H     -0.36333333     -0.88998127     -0.51383093
 H     -0.36333333      0.88998127     -0.51383093
 H      1.88274777     -0.80013118      0.65605949