302
Step 1 E=        39.6214
 C      0.00000000      0.00000000      0.00000000
 C      1.54000000      0.00000000      0.00000000
 C      2.16637443      1.40686000      0.00000000
 C      3.66258126      1.42635798      0.36412216
 C      4.37444288      2.74721905      0.01745361
 C      5.74756620      2.91509470      0.69417372
 C      6.61420783      4.03231159      0.08396170
 C      7.80827375      4.44933657      0.96253826
 C      8.86966735      5.28384156      0.22183248
 C      9.86262187      6.00358967      1.15328510
 C     11.12184635      6.52987085      0.43985548
 C     11.92973321      7.54856924      1.26518717
 C     13.35239120      7.79950336      0.73163652
 C     14.02631261      9.05674727      1.31195340
 C     15.54704658      9.11737171      1.07680900
 C     16.16348261     10.50756727      1.31963181
 C     17.69835589     10.49897091      1.44489208
 C     18.34467642     11.89133844      1.32167505
 C     19.80707386     11.94772305      1.80106479
 C     20.56498756     13.21107141      1.35260327
 C     21.88202353     13.45432906      2.11276245
 C     22.81209933     14.48190799      1.44146478
 C     23.93842489     14.99853024      2.35584554
 C     25.06861801     15.72825267      1.60633323
 C     25.99501164     16.55294604      2.51917259
 C     27.31536789     16.97914964      1.85088383
 C     28.07048235     18.08826088      2.60671081
 C     29.53502382     18.26278069      2.16369712
 C     30.17995830     19.57877757      2.63678453
 C     31.71539320     19.60112660      2.52042224
 C     32.33211895     21.00728535      2.63860394
 C     33.85172575     21.00580319      2.88838985
 C     34.52755776     22.36832012      2.64673158
 C     35.94761331     22.47586089      3.23280087
 C     36.75866971     23.66919963      2.69453500
 C     38.01430947     23.99796456      3.52331870
 C     39.01109206     24.92863720      2.80786575
 C     40.06859774     25.54891971      3.73981603
 C     41.26642507     26.17319671      3.00016211
 C     42.12961209     27.10006633      3.87618771
 C     43.50571763     27.43226051      3.26990347
 C     44.21521237     28.62270814      3.94150726
 C     45.71305728     28.73246331      3.60089833
 C     46.33860095     30.09354870      3.95830802
 C     47.87858458     30.09264660      3.96535159
 C     48.50582173     31.49910458      3.95831454
 C     50.00036084     31.52028944      4.32912992
 C     50.71461523     32.83825962      3.97643282
 C     52.08473541     33.01009158      4.65822785
 C     52.95484660     34.12247638      4.04413780
 C     54.14514286     34.54497762      4.92520961
 C     55.21042553     35.37362468      4.18351096
 C     56.19955798     36.09933160      5.11440648
 C     57.46235432     36.61983871      4.40305723
 C     58.26709074     37.64384965      5.22488500
 C     59.69232674     37.89018739      4.69609386
 C     60.36436615     39.15109120      5.27062377
 C     61.88619591     39.20916765      5.04201642
 C     62.50237489     40.60067715      5.27786546
 C     64.03665416     40.59206388      5.41020194
 C     64.68439129     41.98315048      5.28014543
 C     66.14461744     42.04205247      5.76581008
 C     66.90535303     43.30176768      5.31193901
 C     68.21905177     43.54960010      6.07638308
 C     69.15282018     44.57188191      5.40213056
 C     70.27527475     45.09426972      6.31799448
 C     71.40933169     45.81803453      5.56854179
 C     72.33205387     46.64859202      6.47978162
 C     73.65571321     47.06930608      5.81455563
 C     74.40805127     48.18326913      6.56600340
 C     75.87470937     48.35380741      6.12847544
 C     76.51828845     49.67272470      6.59523355
 C     78.05425256     49.69335443      6.48574076
 C     78.67130067     51.09994895      6.59684204
 C     80.18974899     51.09933545      6.85357989
 C     80.86752005     52.45972094      6.60543139
 C     82.28494891     52.57055375      7.19721811
 C     83.09919374     53.75959765      6.65428167
 C     84.35123617     54.09345437      7.48646520
 C     85.35185255     55.01848233      6.76904612
 C     86.40547174     55.64469183      7.70143459
 C     87.60705197     56.26304363      6.96289143
 C     88.46679958     57.19555264      7.83631057
 C     89.84586619     57.52266355      7.23400356
 C     90.55302013     58.71739467      7.90044999
 C     92.05247336     58.82387145      7.56593134
 C     92.67721828     60.18707299      7.91660976
 C     94.21715279     60.18531842      7.93070294
 C     94.84528457     61.59132433      7.91663586
 C     96.33812643     61.61424413      8.29412472
 C     97.05479934     62.92927966      7.93543056
 C     98.42189567     63.10510532      8.62225875
 C     99.29549111     64.21262881      8.00434069
 C    100.48200973     64.64062594      8.88785188
 C    101.55118235     65.46340596      8.14521942
 C    102.53649900     66.19506985      9.07549842
 C    103.80285408     66.70981560      8.36628645
 C    104.60445939     67.73911613      9.18455862
 C    106.03224879     67.98088959      8.66057098
 C    106.70243491     69.24541358      9.22927975
 H     -0.36333333      0.00000000      1.02766186
 H     -0.36333333     -0.88998127     -0.51383093
 H     -0.36333333      0.88998127     -0.51383093
 H      1.88274777     -0.52778528     -0.88998127
 H      1.88274777     -0.52778528      0.88998127
 H      1.62962592      2.02101998      0.72305501
 H      2.05048553      1.83364121     -0.99625678
 H      4.15717254      0.61860736     -0.17533905
 H      3.75648615      1.25769264      1.43689142
 H      3.73528646      3.57318737      0.32947188
 H      4.51745299      2.78633854     -1.06241572
 H      6.29022101      1.97384542      0.60656354
 H      5.58492586      3.14405090      1.74737226
 H      5.98363611      4.90706985     -0.07502660
 H      6.99911231      3.68290906     -0.87409175
 H      8.28610715      3.54634474      1.34251327
 H      7.42998472      5.03909210      1.79751480
 H      8.35704665      6.03512878     -0.37890668
 H      9.43363806      4.61865673     -0.43205296
 H     10.17502842      5.30336409      1.92800201
 H      9.35043231      6.84897395      1.61272744
 H     10.81419884      7.00881589     -0.48969531
 H     11.76813359      5.68146395      0.21486982
 H     12.00744527      7.17720748      2.28702438
 H     11.39075684      8.49598644      1.26292277
 H     13.29790978      7.90882650     -0.35149793
 H     13.96865155      6.93514349      0.97903338
 H     13.84452212      9.07804827      2.38647585
 H     13.57273755      9.93327282      0.84927359
 H     15.74596536      8.82981289      0.04441313
 H     16.02662478      8.40735002      1.75058489
 H     15.74654059     10.91094553      2.24242395
 H     15.89131889     11.15370606      0.48504715
 H     18.10290589      9.86245378      0.65794529
 H     17.96048921     10.08434135      2.41827199
 H     17.76148007     12.59382929      1.91706452
 H     18.31556825     12.19123888      0.27414823
 H     20.33053216     11.07627652      1.40778074
 H     19.81219144     11.91358169      2.89051795
 H     19.91592862     14.07304752      1.50693953
 H     20.79453568     13.11447190      0.29143590
 H     22.41514170     12.50648610      2.18678091
 H     21.63924254     13.81369382      3.11276963
 H     22.21004628     15.33352976      1.12464863
 H     23.26690569     14.01365826      0.56854246
 H     24.37012457     14.14729605      2.88228237
 H     23.50382338     15.68987485      3.07783180
 H     24.61753472     16.40164202      0.87751868
 H     25.67261256     14.98360640      1.08788120
 H     26.23342677     15.95302465      3.39743937
 H     25.46100537     17.45185529      2.82723015
 H     27.09061914     17.34019209      0.84727217
 H     27.96421896     16.10571990      1.78597790
 H     28.06036193     17.84674864      3.66956988
 H     27.54831792     19.03099937      2.44334486
 H     29.56909848     18.23653149      1.07454612
 H     30.11590230     17.43257680      2.56549518
 H     29.91313289     19.73487527      3.68202982
 H     29.77863904     20.39330709      2.03380483
 H     31.99174971     19.18600797      1.55119388
 H     32.12834646     18.97796934      3.31367166
 H     31.84904825     21.52487213      3.46736604
 H     32.13775576     21.54585503      1.71109887
 H     34.30792562     20.27390321      2.22182845
 H     34.02861219     20.71429128      3.92368304
 H     33.90966611     23.14279613      3.10115079
 H     34.58705663     22.53545584      1.57126631
 H     36.48714927     21.55927739      2.99431476
 H     35.86501091     22.57776747      4.31487845
 H     36.11292140     24.54730095      2.68766563
 H     37.07084604     23.43979020      1.67570368
 H     38.52488742     23.06378108      3.75722335
 H     37.69795270     24.48053520      4.44805865
 H     38.44972840     25.73746954      2.34014673
 H     39.52689503     24.35269132      2.03953402
 H     40.44340923     24.76755386      4.40093913
 H     39.58850256     26.32728850      4.33290173
 H     40.88570191     26.75298784      2.15933388
 H     41.89822967     25.36636957      2.62874198
 H     42.28756775     26.61298656      4.83842641
 H     41.58681240     28.03333257      4.02612978
 H     43.36767101     27.66662682      2.21438674
 H     44.14392399     26.55394450      3.36661763
 H     44.11630310     28.51563454      5.02171659
 H     43.72262055     29.54062798      3.62076364
 H     45.83375157     28.57045707      2.52978356
 H     46.24685277     27.95559336      4.14828801
 H     45.99147711     30.38021454      4.95099515
 H     45.99961821     30.82878545      3.22850145
 H     48.22506933     29.55840730      3.08068404
 H     48.21693577     29.57094015      4.86058388
 H     47.96615443     32.11865472      4.67456648
 H     48.39475020     31.91892830      2.95855899
 H     50.49691278     30.70847087      3.79763506
 H     50.08925847     31.35912674      5.40347800
 H     50.07455025     33.66677868      4.27970333
 H     50.86258247     32.86969093      2.89698028
 H     52.62720313     32.06793105      4.57972754
 H     51.91742568     33.24655299      5.70903394
 H     52.32554864     34.99646273      3.87611419
 H     53.34390891     33.76611138      3.09033777
 H     54.62067686     33.64440386      5.31371227
 H     53.76340686     35.14081915      5.75427564
 H     54.70101963     36.12096357      3.57516057
 H     55.77696713     34.70352204      3.53690980
 H     56.50798842     35.40439533      5.89545338
 H     55.68579685     36.94822978      5.56553991
 H     57.15925365     37.09240697      3.46876112
 H     58.10913848     35.76949027      4.18700681
 H     58.33990319     37.27964647      6.24965540
 H     57.72871592     38.59154298      5.21348730
 H     59.64286285     37.99191328      3.61197894
 H     60.30691592     37.02723004      4.95238427
 H     60.17768070     39.18006395      6.34412697
 H     59.91345179     40.02460281      4.79971645
 H     62.08965242     38.91423031      4.01259065
 H     62.36225142     38.50362686      5.72295940
 H     62.08146986     41.01078702      6.19587899
 H     62.23442699     41.24108287      4.43751765
 H     64.44440248     39.94978472      4.62961320
 H     64.29408060     40.18414476      6.38766479
 H     64.09891461     42.69015760      5.86790217
 H     64.66025543     42.27568477      4.23041159
 H     66.66932878     41.16755192      5.38106757
 H     66.14473560     42.01557988      6.85548855
 H     66.25612842     44.16518917      5.45723434
 H     67.13968804     43.19756436      4.25253882
 H     68.75124031     42.60198968      6.15950850
 H     67.97192588     43.91613923      7.07271529
 H     68.55274749     45.42160437      5.07657795
 H     69.61132118     44.09723115      4.53461486
 H     70.70403825     44.24651058      6.85237852
 H     69.83780595     45.79093520      7.03310165
 H     70.96199966     46.48653966      4.83295023
 H     72.01522873     45.06940257      5.05811160
 H     72.56608249     46.05472989      7.36333036
 H     71.79720109     47.54996070      6.77905911
 H     73.43577598     47.42340466      4.80741025
 H     74.30431423     46.19506105      5.75876715
 H     74.39292496     47.94925253      7.63047859
 H     73.88722147     49.12513970      6.39361967
 H     75.91374434     48.31987011      5.03970341
 H     76.45323263     47.52611306      6.53875938
 H     76.24678607     49.83633445      7.63812296
 H     76.12023212     50.48322334      5.98470664
 H     78.33477850     49.27125988      5.52073226
 H     78.46319157     49.07555616      7.28523695
 H     78.18476791     51.62364116      7.41972256
 H     78.48151060     51.63208841      5.66469006
 H     80.64853758     50.36249320      6.19427987
 H     80.36172262     50.81501676      7.89169739
 H     80.24803709     53.23773917      7.05155750
 H     80.93203593     52.61924521      5.52909979
 H     82.82500250     51.65199789      6.96765931
 H     82.19746579     52.68012516      8.27816252
 H     82.45402631     54.63800694      6.63827869
 H     83.41588054     53.52283741      5.63852872
 H     84.86016258     53.16064206      7.72927195
 H     84.03095537     54.58270944      8.40632915
 H     84.79313194     55.82433008      6.29308322
 H     85.87080503     54.43683881      6.00715430
 H     86.77677539     54.86778094      8.36974819
 H     85.92315255     56.42749838      8.28682516
 H     87.23053332     56.83712298      6.11627073
 H     88.24004848     55.45325134      6.60005281
 H     88.62005560     56.71516769      8.80266604
 H     87.92389721     58.13016930      7.97719610
 H     89.71278906     57.74967291      6.17624308
 H     90.48308106     56.64467659      7.33981518
 H     90.44910972     58.61798752      8.98092250
 H     90.06246643     59.63332177      7.57100406
 H     92.17796073     58.65425676      6.49654657
 H     92.58328180     58.05056242      8.12121104
 H     92.32573918     60.48092459      8.90565661
 H     92.34202836     60.91735133      7.18010365
 H     94.56734623     59.64466049      7.05141143
 H     94.55108722     59.66973019      8.83112315
 H     94.30273294     62.21621831      8.62603366
 H     94.73904206     62.00416328      6.91345266
 H     96.83660010     60.79841267      7.77063352
 H     96.42201428     61.46059795      9.36997586
 H     96.41386736     63.76028832      8.22993151
 H     97.20771700     62.95302301      6.85647160
 H     98.96413411     62.16209781      8.55287355
 H     98.24993216     63.34905763      9.67059831
 H     98.66750771     65.08577891      7.82729335
 H     99.68868746     63.84932903      7.05486194
 H    100.95520689     63.74253159      9.28485435
 H    100.09685757     65.24251373      9.71094902
 H    101.04502355     66.20674115      7.52930055
 H    102.12025848     64.78843541      7.50594865
 H    102.84092772     65.50546967      9.86281967
 H    102.02120645     67.04742425      9.51829133
 H    103.50431794     67.17597117      7.42731087
 H    104.45009313     65.85758829      8.15918690
 H    104.67236331     67.38209487     10.21218933
 H    104.06672801     68.68702092      9.16402876
 H    105.98780216     68.07500859      7.57555204
 H    106.64512703     67.11939834      8.92573711
 H    106.86055242     69.12223910     10.30069325
 H    106.05926608     70.10773887      9.05369803
 H    107.66183876     69.40128297      8.73597558
302
Step 10000 E=        42.4188
 C      0.00000000      0.00000000      0.00000000
 C      1.54000000      0.00000000      0.00000000
 C      2.16637443      0.62552198      1.26014972
 C      3.56627707      0.08112943      1.60001641
 C      3.54957422     -1.20557911      2.44600823
 C      3.13316650     -0.98580985      3.91226403
 C      2.76799829     -2.28127716      4.66060661
 C      3.07966176     -2.24282980      6.16824970
 C      2.60238301     -3.48803684      6.93848631
 C      1.08508986     -3.51930673      7.20010377
 C      0.63664205     -4.64377230      8.15198179
 C      0.95588284     -6.06115755      7.64138962
 C      0.01011546     -6.55462941      6.53070983
 C      0.23115446     -8.02422377      6.12693491
 C     -0.97762645     -8.66922429      5.42378270
 C     -0.72778362    -10.11159967      4.94552353
 C     -2.01372588    -10.90116092      4.63804095
 C     -1.76299648    -12.33070734      4.12313144
 C     -3.00269090    -12.99819675      3.49925996
 C     -2.69673122    -14.30373618      2.74192551
 C     -3.94955906    -15.10962652      2.35133215
 C     -3.66522384    -16.28862327      1.40226937
 C     -2.76801727    -15.92606481      0.20428284
 C     -2.11874223    -17.14188538     -0.48261037
 C     -3.12228121    -18.22735373     -0.91419810
 C     -2.46402628    -19.50135483     -1.47564415
 C     -3.44696568    -20.66377784     -1.70845928
 C     -4.48295892    -20.39577063     -2.81592943
 C     -3.87330609    -20.25439784     -4.22303183
 C     -4.78011541    -20.77477713     -5.35374056
 C     -5.91167511    -19.80626365     -5.74508989
 C     -6.86598372    -20.35948162     -6.81972702
 C     -7.42176149    -19.28757235     -7.77561486
 C     -8.33376736    -19.84789274     -8.88281239
 C     -7.57248042    -20.51368351    -10.04417575
 C     -8.48265281    -21.04234141    -11.16832300
 C     -7.71810170    -21.62814384    -12.36994569
 C     -8.62722471    -22.22689144    -13.45925587
 C     -7.86505552    -22.77095977    -14.68183011
 C     -6.96175949    -23.97867473    -14.37025211
 C     -6.05488535    -24.40114710    -15.54101955
 C     -5.40222748    -25.78425111    -15.36029608
 C     -4.76221219    -26.34725819    -16.64287297
 C     -4.25191252    -27.79373225    -16.50537003
 C     -3.20819674    -28.19312170    -17.56496685
 C     -2.85658603    -29.69244444    -17.56385443
 C     -1.65493602    -30.05467223    -18.45628273
 C     -1.39086784    -31.56778496    -18.56744865
 C     -0.00122398    -31.92151127    -19.12902469
 C      0.21183947    -33.42739010    -19.37096046
 C      1.69180970    -33.84649365    -19.44606259
 C      1.92065932    -35.22337621    -20.09677165
 C      3.17622574    -35.95571002    -19.58800829
 C      3.61982376    -35.53120301    -18.17570003
 C      4.46591814    -36.58753933    -17.44093621
 C      5.16965410    -36.05824127    -16.17752841
 C      6.23665656    -37.01199338    -15.60879062
 C      6.58966304    -36.74850420    -14.13313488
 C      5.42980563    -37.01203568    -13.15493145
 C      5.75973020    -36.67922047    -11.68796730
 C      4.61179673    -36.97537849    -10.70504351
 C      5.03187641    -36.94451042     -9.22376695
 C      3.99021207    -37.54983239     -8.26453773
 C      2.62644083    -36.83488988     -8.28872885
 C      1.60948857    -37.39122463     -7.27487495
 C      0.24112806    -36.68550272     -7.30872901
 C     -0.64771693    -36.98346881     -6.08693901
 C     -1.85224102    -36.03487909     -5.94237326
 C     -2.86414911    -36.12654314     -7.09962851
 C     -3.71684632    -34.85807588     -7.28803834
 C     -4.72721353    -34.94891363     -8.44670421
 C     -5.51518613    -33.64909145     -8.69401268
 C     -6.24344548    -33.60650475    -10.05026660
 C     -6.78759884    -32.21560796    -10.42563741
 C     -7.85780122    -32.23955977    -11.53274769
 C     -8.23198191    -30.84661696    -12.07246905
 C     -9.38520327    -30.85932980    -13.09301737
 C     -9.74359655    -29.46925082    -13.65054286
 C    -11.14060717    -29.39364084    -14.29416111
 C    -11.46521089    -28.02814214    -14.92791636
 C    -11.51028835    -26.86465162    -13.92001863
 C    -11.83886588    -25.49982569    -14.55317498
 C    -11.75769757    -24.31736950    -13.56991048
 C    -12.20131686    -22.97091985    -14.17147117
 C    -12.36363417    -21.84446578    -13.13399620
 C    -12.74632979    -20.48263259    -13.74272802
 C    -12.33710270    -19.27395416    -12.88062036
 C    -12.98464994    -17.94621958    -13.31582546
 C    -12.67799944    -16.76306540    -12.37896280
 C    -13.34131055    -15.43967344    -12.80352388
 C    -12.95901479    -14.23630748    -11.92184349
 C    -13.36723987    -12.87330824    -12.51106784
 C    -12.80291597    -11.66418934    -11.74219202
 C    -13.35749433    -10.30731842    -12.21436166
 C    -13.15362361    -10.03578752    -13.71646275
 C    -13.67501544     -8.66331939    -14.18130872
 C    -13.24657345     -8.28176537    -15.61045322
 C    -13.57961202     -9.34850401    -16.67005408
 C    -13.17854736     -8.95400786    -18.10362303
 C    -13.21065573    -10.12193234    -19.10687848
 H     -0.36333333      0.00000000      1.02766186
 H     -0.36333333     -0.88998127     -0.51383093
 H     -0.36333333      0.88998127     -0.51383093
 H      1.88274777     -0.42657900      0.94268464
 H      1.88274777      0.08492879      1.03121824
 H      1.62962592      0.25093814      2.13175054
 H      2.05048553      1.70764367      1.19946686
 H      4.14776209      0.03207952      0.67938115
 H      3.55150512     -1.00202438      1.47893949
 H      2.79804065     -1.87802091      2.03234253
 H      3.15990001     -0.96104037      3.43416551
 H      2.26848755     -0.32232962      3.92724096
 H      3.32996944     -1.90396694      4.46575854
 H      3.56206529     -2.50016473      5.37450144
 H      1.79086574     -2.61500421      4.31141004
 H      2.74641379     -1.28293189      6.56276432
 H      4.15807399     -2.33424107      6.29775275
 H      2.86647332     -4.37211232      6.35817015
 H      1.65311640     -3.81199811      6.51182251
 H      0.57313423     -3.22621159      6.28353590
 H      0.85833767     -2.80146803      7.98838738
 H      1.32736185     -4.67535325      8.99460199
 H      1.03595996     -5.58731706      7.78000262
 H      1.97305020     -6.06333568      7.24964250
 H      0.33094949     -6.26073484      6.77091434
 H     -0.12941270     -5.74487639      5.81451717
 H     -0.94823939     -6.80787819      6.98405411
 H     -0.65689551     -8.59279987      6.40295749
 H      1.14501329     -8.08352306      5.53579564
 H     -1.36365665     -7.96288986      4.68881851
 H     -1.74363666     -8.86887305      6.17309487
 H     -0.21830535    -10.65349490      5.74231801
 H     -0.08736236    -10.07441615      4.06428690
 H     -2.68455149    -10.25612232      4.07057447
 H     -2.48375290    -11.17229668      5.58337688
 H     -2.61746468    -12.94894684      4.39838407
 H     -1.41631939    -12.26760688      3.09166000
 H     -3.49284522    -12.27227041      2.85050755
 H     -2.74944508    -14.02945131      3.25333193
 H     -2.01408108    -14.89953346      3.34782517
 H     -3.40679493    -14.39782978      1.92030763
 H     -4.69094610    -14.41806157      1.95110325
 H     -4.34422483    -15.58601432      3.24876939
 H     -2.78042282    -16.81321083      1.76287308
 H     -2.59577330    -16.30967975      1.19266934
 H     -1.93972569    -15.31802018      0.56803384
 H     -3.36002500    -15.34696807     -0.50442995
 H     -2.72103665    -18.02290524     -0.26092268
 H     -1.31572105    -17.50845138      0.15683185
 H     -3.97566564    -17.73800210     -1.38363393
 H     -3.45412131    -18.76095653     -0.02355216
 H     -1.62882123    -19.76930186     -0.82854531
 H     -3.23082703    -20.08984274     -1.97942842
 H     -4.34119030    -20.26565904     -2.18800462
 H     -3.71218794    -21.08757766     -0.73987739
 H     -4.00447525    -19.80525135     -3.59723625
 H     -5.22264146    -19.69391269     -2.43074745
 H     -3.13573480    -21.04550699     -4.35806852
 H     -3.38115988    -19.28396168     -4.28741944
 H     -5.81654933    -20.57658463     -5.08056578
 H     -4.76609680    -21.86443513     -5.33031128
 H     -5.49514498    -18.80112711     -5.81068851
 H     -6.67202481    -19.83424476     -4.96458660
 H     -7.10687693    -21.39170603     -6.56559473
 H     -6.54360470    -19.98352595     -7.79072089
 H     -6.60140992    -18.63369760     -8.07153904
 H     -8.17365108    -18.70768476     -7.24036499
 H     -9.01433589    -20.57085172     -8.43308270
 H     -7.72518578    -20.45350436     -9.55435019
 H     -8.20084654    -21.30202884    -10.45862437
 H     -7.12063689    -19.72972302    -10.65191202
 H     -9.23561519    -20.28447585    -11.38462705
 H     -8.97182116    -21.95004739    -10.81493344
 H     -6.91326968    -22.25758042    -11.99026817
 H     -8.26572109    -21.37930776    -13.27895263
 H     -9.45347631    -21.53756110    -13.63312930
 H     -8.07273250    -23.01020894    -13.97602669
 H     -7.08281126    -23.44211692    -14.32722894
 H     -7.51733823    -21.92421123    -15.27361522
 H     -7.51774289    -24.66747638    -13.73422165
 H     -6.02029673    -23.84929987    -14.90411541
 H     -5.61840041    -23.50296008    -15.97787305
 H     -6.66991928    -24.90563472    -16.28622121
 H     -6.16030917    -26.47548483    -14.99204602
 H     -4.60466740    -25.69317982    -14.62293325
 H     -4.20019826    -25.54742502    -17.12506301
 H     -5.56020360    -26.68141731    -17.30593209
 H     -5.01083642    -28.37678692    -15.98365960
 H     -3.33555562    -27.77926865    -15.91530153
 H     -2.49119946    -27.37813836    -17.66404787
 H     -3.72297194    -28.34158249    -18.51421175
 H     -3.78253097    -30.26157599    -17.48129991
 H     -2.22651515    -29.89608888    -16.69803712
 H     -0.86865875    -29.31884415    -18.28768527
 H     -1.98729409    -30.77661936    -19.20222539
 H     -2.34499144    -32.07182937    -18.72135573
 H     -0.94703934    -31.90790670    -17.63180264
 H      0.73695417    -31.28194917    -18.64513076
 H     -0.00477050    -31.72540862    -20.20123323
 H     -0.67990282    -33.82641082    -19.85436314
 H      0.34994874    -33.91352375    -18.40519656
 H      2.22969775    -33.35136840    -18.63759031
 H      2.09306732    -33.51721684    -20.40453487
 H      1.29845783    -35.28830088    -20.98938024
 H      1.61824947    -35.99274255    -19.38633254
 H      3.56877570    -35.40817329    -18.73114886
 H      4.05289541    -35.47514067    -20.02229321
 H      2.73567280    -35.47707959    -17.54052467
 H      4.07989569    -34.54533703    -18.24279760
 H      5.20388533    -36.98199498    -18.13944116
 H      3.80503217    -37.39190766    -17.11794809
 H      4.45655237    -35.45562375    -15.61500014
 H      6.00758809    -35.43407169    -16.48797803
 H      6.83482494    -37.39049445    -16.43766427
 H      5.72803784    -37.84229781    -15.11889109
 H      5.66178625    -36.60980552    -13.57824090
 H      7.20088334    -35.84742083    -14.08255322
 H      4.95355928    -37.95214424    -13.43329328
 H      5.40484953    -36.20150215    -12.42656849
 H      6.27628673    -35.71974375    -11.66201000
 H      6.41767893    -37.45670510    -11.29973912
 H      4.19126422    -37.94998471    -10.95282389
 H      3.84782524    -36.20786335    -10.82901153
 H      5.66265374    -36.06994376     -9.06454035
 H      4.45540676    -37.69881974     -8.68822967
 H      3.62359770    -38.47975043     -8.69921732
 H      3.02020882    -37.10522644     -8.48706689
 H      2.35512280    -36.64931535     -9.32798272
 H      2.72826289    -35.88464020     -7.76455538
 H      2.12043241    -37.54056842     -6.32370050
 H      1.24476717    -38.34911500     -7.64571771
 H     -0.05370937    -36.55921995     -8.35046965
 H      0.34838148    -35.70714218     -6.84031963
 H     -0.03145498    -36.91682905     -5.19034525
 H     -1.03739401    -37.99665037     -6.18550316
 H     -1.92279123    -35.43022987     -6.84654248
 H     -1.48833971    -35.07029244     -5.58846870
 H     -3.03413396    -37.17963542     -7.32368609
 H     -2.43316077    -35.63452962     -7.97156415
 H     -3.06106156    -33.99040971     -7.21591509
 H     -4.45746200    -34.82115778     -6.48914818
 H     -5.21589377    -35.92210117     -8.39982521
 H     -4.18063736    -34.86166173     -9.38571518
 H     -4.81750146    -32.81256209     -8.65458236
 H     -6.25639026    -33.54166328     -7.90206848
 H     -6.73163432    -34.56829782    -10.20751080
 H     -5.50205543    -33.44318035    -10.83242127
 H     -6.01778887    -31.47575458    -10.20629845
 H     -7.66809249    -32.01578659     -9.81498010
 H     -8.55562543    -33.04874850    -11.31744565
 H     -7.78911820    -31.30892322    -12.09604002
 H     -7.31332001    -30.28044746    -12.22613236
 H     -8.84797948    -30.34418541    -11.32667450
 H    -10.16849645    -31.51742412    -12.71690081
 H     -9.00387735    -31.25049130    -14.03624757
 H     -8.81753108    -28.94823680    -13.89353904
 H    -10.27884021    -28.91757279    -12.87771326
 H    -11.84643397    -29.90899778    -13.64276588
 H    -11.10119053    -29.89890843    -15.25917458
 H    -10.59463872    -27.69756782    -15.49441853
 H    -11.17218002    -27.24658606    -14.22691493
 H    -10.65379741    -26.95639842    -13.25210710
 H    -12.43140954    -26.94651840    -13.34301466
 H    -12.66352744    -25.63617347    -15.25277672
 H    -10.95829475    -25.15150245    -15.09295771
 H    -10.85167531    -24.42853293    -12.97420388
 H    -12.62916180    -24.35470079    -12.91626189
 H    -13.11690590    -23.13449652    -14.73983670
 H    -11.41614780    -22.61922239    -14.84073827
 H    -11.50876343    -21.87489410    -12.45844448
 H    -13.27869438    -22.02674010    -12.57048853
 H    -13.52836463    -20.64623360    -14.48418349
 H    -12.16230110    -19.70846631    -13.24505639
 H    -11.31975403    -19.43579595    -12.52437759
 H    -13.01513418    -19.21496751    -12.02921335
 H    -14.04018737    -18.12935561    -13.51682779
 H    -12.49414672    -17.60872350    -14.22884407
 H    -11.61648225    -16.78715629    -12.13258729
 H    -13.26510910    -16.88548286    -11.46878908
 H    -14.37362114    -15.64834869    -13.08439659
 H    -12.80234277    -15.04734558    -13.66590002
 H    -11.88325023    -14.26620612    -11.74882123
 H    -13.48274923    -14.32842366    -10.97036210
 H    -14.38426595    -12.95632593    -12.89429888
 H    -12.68837697    -12.63694413    -13.33044392