62
Step 1 E=         6.9931
 C      0.00000000      0.00000000      0.00000000
 C      1.54000000      0.00000000      0.00000000
 C      2.16637443      1.40686000      0.00000000
 C      3.66258126      1.42635798      0.36412216
 C      4.37444288      2.74721905      0.01745361
 C      5.74756620      2.91509470      0.69417372
 C      6.61420783      4.03231159      0.08396170
 C      7.80827375      4.44933657      0.96253826
 C      8.86966735      5.28384156      0.22183248
 C      9.86262187      6.00358967      1.15328510
 C     11.12184635      6.52987085      0.43985548
 C     11.92973321      7.54856924      1.26518717
 C     13.35239120      7.79950336      0.73163652
 C     14.02631261      9.05674727      1.31195340
 C     15.54704658      9.11737171      1.07680900
 C     16.16348261     10.50756727      1.31963181
 C     17.69835589     10.49897091      1.44489208
 C     18.34467642     11.89133844      1.32167505
 C     19.80707386     11.94772305      1.80106479
 C     20.56498756     13.21107141      1.35260327
 H     -0.36333333      0.00000000      1.02766186
 H     -0.36333333     -0.88998127     -0.51383093
 H     -0.36333333      0.88998127     -0.51383093
 H      1.88274777     -0.52778528     -0.88998127
 H      1.88274777     -0.52778528      0.88998127
 H      1.62962592      2.02101998      0.72305501
 H      2.05048553      1.83364121     -0.99625678
 H      4.15717254      0.61860736     -0.17533905
 H      3.75648615      1.25769264      1.43689142
 H      3.73528646      3.57318737      0.32947188
 H      4.51745299      2.78633854     -1.06241572
 H      6.29022101      1.97384542      0.60656354
 H      5.58492586      3.14405090      1.74737226
 H      5.98363611      4.90706985     -0.07502660
 H      6.99911231      3.68290906     -0.87409175
 H      8.28610715      3.54634474      1.34251327
 H      7.42998472      5.03909210      1.79751480
 H      8.35704665      6.03512878     -0.37890668
 H      9.43363806      4.61865673     -0.43205296
 H     10.17502842      5.30336409      1.92800201
 H      9.35043231      6.84897395      1.61272744
 H     10.81419884      7.00881589     -0.48969531
 H     11.76813359      5.68146395      0.21486982
 H     12.00744527      7.17720748      2.28702438
 H     11.39075684      8.49598644      1.26292277
 H     13.29790978      7.90882650     -0.35149793
 H     13.96865155      6.93514349      0.97903338
 H     13.84452212      9.07804827      2.38647585
 H     13.57273755      9.93327282      0.84927359
 H     15.74596536      8.82981289      0.04441313
 H     16.02662478      8.40735002      1.75058489
 H     15.74654059     10.91094553      2.24242395
 H     15.89131889     11.15370606      0.48504715
 H     18.10290589      9.86245378      0.65794529
 H     17.96048921     10.08434135      2.41827199
 H     17.76148007     12.59382929      1.91706452
 H     18.31556825     12.19123888      0.27414823
 H     20.33053216     11.07627652      1.40778074
 H     19.81219144     11.91358169      2.89051795
 H     20.74380270     13.85291461      2.21525179
 H     19.96906562     13.75001455      0.61604551
 H     21.51853978     12.92447320      0.90909495
62
Step 10000 E=        13.1459
 C      0.00000000      0.00000000      0.00000000
 C      1.54000000      0.00000000      0.00000000
 C      2.16637443     -1.02487614     -0.96378627
 C      3.70532271     -1.06419951     -0.92265390
 C      4.33615252     -2.00135014     -1.96926865
 C      4.14659251     -1.53342562     -3.42416165
 C      4.75050670     -0.14807843     -3.72030486
 C      3.87118509      0.73896951     -4.62115972
 C      2.36495485      0.64461861     -4.31461711
 C      1.82349011      1.81225338     -3.46901378
 C      1.85762512      3.17419772     -4.18702661
 C      0.84919844      4.19881347     -3.63490508
 C      1.36030872      4.98504448     -2.41334580
 C      0.29509889      5.88133863     -1.75487422
 C      0.79915776      6.64794230     -0.51800580
 C     -0.04776504      7.88284101     -0.15835745
 C      0.41344450      8.60812875      1.11947018
 C     -0.23835340      9.98795738      1.32643020
 C     -1.76453095      9.93622473      1.52569338
 C     -2.21234166      9.05791318      2.70875483
 H     -0.36333333      0.00000000      1.02766186
 H     -0.36333333     -0.88998127     -0.51383093
 H     -0.36333333      0.88998127     -0.51383093
 H      1.88274777     -0.14164108     -1.02496916
 H      1.88274777     -0.34102559     -0.97689586
 H      3.05332727     -0.57668915     -1.41160665
 H      2.05048553     -2.01827738     -0.53039991
 H      4.02557287     -2.09705486     -1.05958330
 H      4.08456328     -0.17866936     -1.43266658
 H      3.73693239     -1.95253305     -2.87847277
 H      4.65601122     -1.39938098     -2.81981173
 H      3.87956542     -0.47670620     -3.41230441
 H      5.02014556     -0.94886495     -3.71276845
 H      5.74027454     -0.10144688     -3.26611864
 H      4.00437292      0.60946153     -3.48047659
 H      2.93954759      0.20905465     -4.81950739
 H      2.91184765      0.88668536     -4.12522453
 H      2.23240600      0.67955523     -3.23327062
 H      2.02187473      1.62273219     -3.97743785
 H      2.48012035      2.67079923     -3.60985322
 H      2.15970377      1.67585317     -2.44117364
 H      1.49324650      3.03434485     -5.20475418
 H      1.75897963      3.95939250     -3.43746793
 H      0.71905902      4.01152713     -2.56903099
 H      1.38919175      4.90641035     -3.00576766
 H      0.50841385      5.21716671     -1.77421014
 H      0.50302077      5.25682250     -1.79747724
 H     -0.63142818      5.31240048     -1.67769284
 H      0.77235893      6.81202054     -1.44802894
 H      0.91903182      7.69661357     -0.79006972
 H      0.88600792      5.94399521      0.30965086
 H      0.53582791      8.51583050      0.51010614
 H      0.45851778      8.42486833      0.64038161
 H      0.47839282      9.67459841      0.90377553
 H      0.11592427      8.00893646      1.98002251
 H     -1.05461928     10.09212192      0.61161571
 H     -1.22319336      9.83887930      1.76911064
 H     -2.06215209      8.89226865      1.62406699
 H     -1.96595696      9.63400865      2.55340589
 H     -2.59554883      9.69254607      3.50781261
 H     -1.36232323      8.48348794      3.07699975
 H     -2.99610984      8.37604344      2.37881379
62
Step 20000 E=         7.1131
 C      0.00000000      0.00000000      0.00000000
 C      1.54000000      0.00000000      0.00000000
 C      2.16637443      0.66373713      1.24044673
 C      3.68936209      0.46615015      1.35476193
 C      4.13347014     -1.00818025      1.32796800
 C      5.64089847     -1.21273141      1.56758989
 C      6.15961108     -2.60003052      1.14576243
 C      7.68802110     -2.67071608      0.97093012
 C      8.22825889     -4.09624557      0.75273574
 C      9.76456287     -4.18074482      0.68769744
 C     10.45236325     -4.15163919      2.06526178
 C     11.97957067     -3.96495332      1.99903559
 C     12.71972432     -4.39918198      3.27779203
 C     12.26981322     -5.76507003      3.82872745
 C     13.03664353     -6.21697257      5.08545151
 C     12.64266716     -7.61772039      5.58972144
 C     13.28451890     -8.00233424      6.93571495
 C     12.71103535     -7.23892384      8.14398693
 C     13.30816393     -7.66827433      9.49701894
 C     12.88956490     -6.77366953     10.67856754
 H     -0.36333333      0.00000000      1.02766186
 H     -0.36333333     -0.88998127     -0.51383093
 H     -0.36333333      0.88998127     -0.51383093
 H      1.88274777     -0.19284401      1.01658013
 H      1.88274777      0.01145685      1.03464618
 H      2.92109557     -0.01034613      1.64554888
 H      2.05048553      1.74349915      1.14672506
 H      3.87652925     -0.38024113      2.01558737
 H      3.98576974     -0.32139145      0.66192664
 H      5.15546375     -1.05150030      0.95146777
 H      4.97707840     -1.12444200      2.00834165
 H      5.79126976     -2.21497285      1.96883866
 H      6.03031650     -1.85177034      0.77507311
 H      6.96746991     -2.46005426      0.42752101
 H      6.95233265     -2.89336788      1.83398166
 H      8.04536166     -3.58470256      1.44531017
 H      7.93380789     -3.61318717      0.48160703
 H      8.98661034     -4.05941459     -0.02934262
 H      9.28847216     -4.10344421      1.00571006
 H     10.17751188     -3.47150695      1.40502217
 H     10.08914465     -3.78522742     -0.27475393
 H     11.41937913     -4.64663830      1.97606444
 H     11.21998828     -3.37795886      2.04881268
 H     12.29177265     -3.38377731      2.86671316
 H     12.43341952     -4.57263083      2.78188248
 H     12.68473266     -5.48675545      3.34150642
 H     12.64534256     -5.48309438      3.36554890
 H     13.15288299     -6.39143479      3.95504044
 H     12.25825191     -5.70865908      4.91720535
 H     12.31048988     -6.52393263      5.83816421
 H     12.86670444     -7.28452629      5.22527200
 H     12.83274963     -7.66194484      6.66210796
 H     12.99220103     -7.72311597      6.61676469
 H     13.35819712     -7.10445449      7.54929744
 H     12.60035219     -7.71826386      7.73528980
 H     12.36490622     -7.96764197      8.87697023
 H     13.39342998     -7.36521644      8.98451519
 H     13.74359574     -6.79002581      9.97365158
 H     12.69040975     -7.25092986     10.29219399
 H     12.21049938     -7.32498162     11.32897126
 H     12.38743028     -5.88331771     10.30010427
 H     13.77448391     -6.47951496     11.24291799
62
Step 30000 E=         8.0388
 C      0.00000000      0.00000000      0.00000000
 C      1.54000000      0.00000000      0.00000000
 C      2.16637443      0.46934710     -1.32626105
 C      3.67904422      0.20135339     -1.43400833
 C      4.03043843     -1.19356086     -1.98385956
 C      5.52095248     -1.55952637     -1.85722186
 C      5.90889856     -2.86443049     -2.57716845
 C      7.42798517     -3.07344802     -2.71960276
 C      8.14278460     -1.95822451     -3.50505697
 C      8.61026323     -0.77843507     -2.63261178
 C      8.51115263      0.59230597     -3.32748306
 C      9.04625880      1.76316793     -2.48229453
 C      8.49116905      1.80420392     -1.04640058
 C      6.98764593      2.12732197     -0.96508058
 C      6.51784183      2.57510641      0.43147704
 C      5.03066961      2.96987516      0.49532383
 C      4.62051639      3.65529994      1.81197382
 C      3.10340738      3.87670963      1.95674259
 C      2.70551712      4.69443091      3.19956810
 C      1.29352525      5.30428791      3.12240985
 H     -0.36333333      0.00000000      1.02766186
 H     -0.36333333     -0.88998127     -0.51383093
 H     -0.36333333      0.88998127     -0.51383093
 H      1.88274777      0.88109926     -0.54248323
 H      1.88274777      0.75678937     -0.70561592
 H      3.13870564      0.91128511     -1.10863107
 H      2.82198482     -0.32000592     -1.69395226
 H      3.87017287     -0.82078987     -1.10721635
 H      3.86859119     -0.32141060     -2.37149954
 H      5.04960835     -1.16332774     -2.36918881
 H      4.86173814     -1.59185106     -1.40213308
 H      5.59648982     -2.63191956     -1.67731365
 H      5.83365223     -2.04766604     -2.78028119
 H      6.76580417     -2.66002287     -3.21906431
 H      6.62571129     -3.39948604     -1.95427595
 H      7.73309440     -2.71207580     -3.70165086
 H      7.88571578     -2.11237539     -2.95395742
 H      7.73061652     -0.99936460     -3.19072414
 H      8.67901805     -1.32857385     -2.79506139
 H      9.20355924     -0.10706711     -3.25338944
 H      9.22837279     -0.12257716     -3.24571126
 H      8.27546679      1.34281878     -2.57297480
 H      9.42432943      1.14946876     -3.11825173
 H      8.19527050      2.30443938     -2.06884062
 H      8.86427799      1.53850761     -1.43133747
 H      7.42219896      1.59484822     -1.08606343
 H      7.41446127      1.64028774     -1.09035328
 H      6.56251441      1.57222118     -0.12888306
 H      6.85987709      3.00790443     -0.33551751
 H      6.03514920      3.54765063      0.33521923
 H      5.42829561      2.60652622      0.43282964
 H      4.91206676      3.73626039      1.26127882
 H      4.88096785      3.60134785      1.37107015
 H      3.78576435      4.32475458      1.60432147
 H      3.56833876      3.43941126      1.99748476
 H      2.80403953      3.55680051      2.95480925
 H      2.94220907      4.70498793      2.64672096
 H      2.31238160      5.65493637      2.86644089
 H      1.61790831      4.75754681      3.23454598
 H      0.63649783      4.78923118      3.82321762
 H      0.90434302      5.19266464      2.11039333
 H      1.34033805      6.36261993      3.37900660
62
Step 40000 E=         6.4828
 C      0.00000000      0.00000000      0.00000000
 C      1.54000000      0.00000000      0.00000000
 C      2.16637443     -1.20460422      0.72676251
 C      3.69916601     -1.28421700      0.60101756
 C      4.34687518     -2.35247331      1.50151813
 C      5.88666317     -2.34115887      1.47860702
 C      6.53141803     -3.60091316      2.08598690
 C      6.71757558     -3.53498644      3.61327176
 C      7.50713087     -4.71998270      4.19977522
 C      7.52350635     -4.76120363      5.73913634
 C      8.24031734     -3.56375457      6.39021064
 C      9.77599895     -3.62408750      6.29201721
 C     10.48688240     -2.35968460      6.80925027
 C     10.29258333     -1.12149010      5.91441942
 C      8.84246742     -0.60538380      5.86544874
 C      8.65697919      0.66124509      5.00938486
 C      7.22614742      1.23018638      5.03441022
 C      7.00164299      2.40377273      4.06286875
 C      5.66877085      3.14566348      4.27417412
 C      5.25976482      4.04707396      3.09443974
 H     -0.36333333      0.00000000      1.02766186
 H     -0.36333333     -0.88998127     -0.51383093
 H     -0.36333333      0.88998127     -0.51383093
 H      1.88274777     -1.02516528     -0.14021452
 H      1.88274777     -1.03268192      0.06474578
 H      2.96092451     -1.60825957      0.09918581
 H      3.04046529     -0.85630483      1.27699220
 H      4.11833168     -1.41889008      1.59814509
 H      3.98904786     -2.33496297      0.60220820
 H      5.29004376     -2.65707793      1.04792243
 H      5.29665518     -1.96234212      1.86732628
 H      6.24648771     -2.72873864      2.43171154
 H      6.23477746     -3.36350684      1.33122629
 H      7.21799953     -3.28904174      2.87303332
 H      5.90183566     -3.94688905      2.90575926
 H      6.66495583     -4.54922364      4.00906724
 H      7.55366423     -4.17945323      3.88478295
 H      8.15490001     -4.34226408      4.99086547
 H      7.22850672     -4.83247434      5.24754151
 H      8.51409194     -4.45962610      6.07956429
 H      8.52274938     -4.48860063      6.07869632
 H      9.16089587     -3.92379074      6.84956795
 H      9.06888282     -3.26884870      5.74630865
 H     10.12035094     -2.73850941      5.75790753
 H     10.19175614     -2.86081460      6.94978651
 H      9.96760736     -1.48766063      6.41172339
 H      9.99598450     -1.48865862      6.37516157
 H      9.47277406     -1.32228737      5.22471425
 H      9.59683506     -0.44532550      6.41124511
 H      8.84408269      0.44833488      6.14432924
 H      8.76849639      0.13381364      5.06781760
 H      7.76386958      1.18130022      5.35579197
 H      7.67862433      1.08625545      5.23363465
 H      7.28442509      2.31037632      4.90064399
 H      7.05462259      1.76758608      4.10173622
 H      6.02986049      2.27342981      3.58668654
 H      6.22647869      3.04833465      4.47730841
 H      5.82121125      4.19856339      4.03697439
 H      5.27898653      3.43483033      3.29818707
 H      4.40184709      3.60993093      2.58357464
 H      6.09295482      4.13298619      2.39693453
 H      4.99500127      5.03631607      3.46780324
62
Step 50000 E=        12.0012
 C      0.00000000      0.00000000      0.00000000
 C      1.54000000      0.00000000      0.00000000
 C      2.16637443     -0.84152632      1.12742562
 C      3.70371181     -0.91476954      1.07423515
 C      4.31993016     -1.89094109      2.09353101
 C      5.85814843     -1.84634849      2.15265842
 C      6.54250908     -2.00433113      0.78215050
 C      8.08078277     -1.96211435      0.84157945
 C      8.72072712     -3.23963546      1.41604533
 C      8.83438207     -4.39352387      0.40252469
 C      9.59958504     -5.62013628      0.93307761
 C      9.85929414     -6.70413529     -0.12951231
 C      9.72268701     -8.14432152      0.39850484
 C     10.40716103     -9.20321434     -0.48571307
 C      9.54877117    -10.45610566     -0.74072323
 C      8.15478201    -10.15289639     -1.32077355
 C      7.53142718    -11.32642676     -2.09914057
 C      6.31365158    -10.93327800     -2.95591163
 C      5.50192949    -12.13307378     -3.47859444
 C      4.18154657    -11.74314471     -4.16862651
 H     -0.36333333      0.00000000      1.02766186
 H     -0.36333333     -0.88998127     -0.51383093
 H     -0.36333333      0.88998127     -0.51383093
 H      1.88274777     -1.00233596      0.25680069
 H      1.88274777     -0.93199297      0.44945864
 H      2.98868297     -1.42027259      0.70675778
 H      3.01510645     -0.29183585      1.53435847
 H      4.08049271     -0.95509447      2.09624790
 H      4.00108388     -1.95787322      1.18195957
 H      5.29225462     -2.20989273      1.71809130
 H      5.24061984     -1.45067221      2.47640673
 H      6.24916256     -2.61744123      1.48886333
 H      6.22254411     -1.37151314      1.24169894
 H      7.40330485     -1.33643291      0.74986092
 H      7.28425442     -2.79931615      0.85904433
 H      8.40352273     -2.48577917      1.74142059
 H      8.44933270     -2.98558468      0.91071290
 H      8.10865189     -4.09199838      1.12118712
 H      9.01955095     -3.87725011      0.58402858
 H      9.84669295     -4.79463165      0.45191313
 H      9.85507036     -4.77498626      0.43048637
 H      9.21023800     -6.50846928      0.43571118
 H     10.32651735     -5.92294420      0.17943527
 H     10.61346354     -7.38950929      0.25725762
 H      9.44081436     -7.64407187      0.23034029
 H     10.55326676     -8.73261577      0.00844438
 H     10.52706685     -8.74353796     -0.02812467
 H     10.35368203    -10.16391750      0.02642894
 H      9.66091531     -9.61846250     -1.16305072
 H      8.58697035    -10.31903211     -0.24650665
 H      8.69573882    -10.16792407     -1.35504171
 H      7.65571443    -11.09986733     -1.52638870
 H      7.72604473    -11.08539091     -1.68784072
 H      6.45003896    -11.19070663     -2.11586107
 H      6.95244904    -10.91896788     -2.92791170
 H      6.36966272    -11.47493123     -3.90014387
 H      5.63908150    -11.78803285     -3.00540255
 H      4.47225578    -12.02486056     -3.13776907
 H      4.82096932    -11.77577698     -4.25107889
 H      4.26408126    -11.92496369     -5.24018140
 H      3.97852299    -10.68655992     -3.99395540
 H      3.36747871    -12.34192177     -3.76014204
62
Step 60000 E=         7.4502
 C      0.00000000      0.00000000      0.00000000
 C      1.54000000      0.00000000      0.00000000
 C      2.16637443      1.34730741     -0.40499112
 C      3.70316716      1.37726841     -0.31027862
 C      4.32391723      2.74943667     -0.63187406
 C      5.82316456      2.69277800     -0.97921717
 C      6.35731090      3.96736911     -1.65870608
 C      7.89376868      4.06994031     -1.67811331
 C      8.60347308      2.76591461     -2.08730352
 C     10.10319293      2.93800488     -2.39197597
 C     10.74907561      1.71513194     -3.06948416
 C     12.10838296      2.01038750     -3.73032279
 C     13.09986703      2.75569035     -2.81758897
 C     14.54295480      2.78750949     -3.35432466
 C     15.36138390      4.00236548     -2.87903659
 C     16.78037771      4.07290064     -3.47324307
 C     17.46803152      5.43891501     -3.29230946
 C     18.96867678      5.43545857     -3.63821677
 C     19.65755325      6.80014158     -3.45196561
 C     21.05841392      6.88635257     -4.08580867
 H     -0.36333333      0.00000000      1.02766186
 H     -0.36333333     -0.88998127     -0.51383093
 H     -0.36333333      0.88998127     -0.51383093
 H      1.88274777      0.95827168      0.39030675
 H      1.88274777      1.01643117      0.19362758
 H      2.98456446      1.56504315      0.28148992
 H      3.01901675      1.14758705     -1.05400025
 H      4.08654391      1.96551665     -1.14399696
 H      3.99896309      2.31112860      0.16774848
 H      5.36861319      2.73429901     -0.32125983
 H      5.12278559      2.60236250     -1.35870177
 H      5.96208069      3.12571727     -1.96985631
 H      6.23886642      3.69422642     -0.86789325
 H      7.21973986      4.32121569     -1.09380884
 H      7.09118041      3.67381014     -2.40927831
 H      8.30505485      3.11937946     -1.33844029
 H      8.28337509      3.26254868     -2.29813395
 H      9.20955749      2.96811009     -2.97041091
 H      9.67911349      2.91918574     -2.00009303
 H     10.61349503      2.00915298     -2.13717036
 H     10.61795944      2.01977219     -2.10919662
 H     11.26025874      2.05294053     -3.97097025
 H     11.81817312      1.73078506     -2.85762216
 H     12.31339057      3.07632807     -3.63111299
 H     12.82921312      2.23749585     -2.94487662
 H     13.92899172      3.11056505     -3.42972963
 H     13.95104152      3.07076781     -3.42118501
 H     14.72019010      3.76481704     -3.80327634
 H     15.19881628      3.13028031     -2.55404103
 H     16.31415329      3.64289695     -2.49030420
 H     16.24032833      4.09433668     -3.51707888
 H     17.30733344      4.90397776     -3.00449101
 H     17.24604024      5.00017408     -3.13944316
 H     18.47686079      5.26772495     -2.91673328
 H     18.38031658      5.44507893     -3.88879749
 H     19.15874289      6.24087639     -4.34763696
 H     19.42722632      6.31361628     -3.18360556
 H     20.66818531      6.62633918     -3.08248551
 H     20.42665967      6.90315759     -4.21744782
 H     21.02419194      7.54340352     -4.95483854
 H     21.37921353      5.89153440     -4.39487893
 H     21.76335457      7.28513925     -3.35633773
62
Step 70000 E=         6.4246
 C      0.00000000      0.00000000      0.00000000
 C      1.54000000      0.00000000      0.00000000
 C      2.16637443     -1.08212336      0.89903510
 C      3.70321825     -1.14617160      0.82414243
 C      4.32780110     -2.24654619      1.70202170
 C      5.85793722     -2.35995536      1.57003005
 C      6.49748075     -3.36845580      2.54240391
 C      8.02483303     -3.49876962      2.39471053
 C      8.67683482     -4.43329115      3.43064642
 C     10.18836037     -4.20466624      3.61671407
 C     10.93549708     -3.86462125      2.31373435
 C     12.45436569     -4.10998946      2.38031225
 C     13.19146792     -3.83789302      1.05583354
 C     12.59449852     -4.57655359     -0.15644039
 C     13.02024208     -3.99382285     -1.51686948
 C     12.70947767     -2.49445319     -1.68093079
 C     11.21174318     -2.15052965     -1.58039227
 C     10.92362943     -0.64562370     -1.42596247
 C      9.42471027     -0.29237299     -1.41852663
 C      8.56033026     -1.24720970     -0.57429085
 H     -0.36333333      0.00000000      1.02766186
 H     -0.36333333     -0.88998127     -0.51383093
 H     -0.36333333      0.88998127     -0.51383093
 H      1.88274777     -1.03460146      0.01495978
 H      1.88274777     -1.01132582      0.21873285
 H      2.98493622     -1.55028476      0.35233454
 H      3.01866598     -0.64462405      1.41893266
 H      4.08842136     -1.31933471      1.82899719
 H      4.00143917     -2.19409413      0.79216346
 H      5.20856318     -2.63452844      1.19033046
 H      5.32947597     -1.92770458      1.99027069
 H      6.28544437     -2.41158537      2.57136515
 H      6.14413499     -3.39151017      1.77517759
 H      7.28462288     -3.90420831      2.01186031
 H      7.31800093     -2.87200437      3.06046049
 H      8.45970642     -3.58120294      3.39079782
 H      8.34156298     -4.41066951      2.90089304
 H      9.59324568     -4.83647598      2.99967876
 H      9.64789202     -4.01939468      3.70237723
 H     10.71275481     -4.69580093      2.79702071
 H     10.71449723     -4.72094201      2.81375745
 H     11.90712446     -3.44546268      2.57516567
 H     11.68639719     -4.63496277      2.13816961
 H     12.72784333     -4.78772926      1.57162272
 H     12.92072764     -3.60362523      1.53520764
 H     12.49483262     -4.00734952      0.23480750
 H     12.50870136     -4.05149539      0.23345659
 H     12.12660331     -3.84034445     -0.81002296
 H     13.36239805     -4.64749484     -0.92676347
 H     12.16042780     -3.48956489     -1.95794013
 H     12.97778355     -2.90655841     -1.45242333
 H     11.72652859     -2.29923619     -1.25221009
 H     11.66529284     -2.32975437     -1.41512570
 H     11.09608321     -1.32466110     -0.87849205
 H     11.08245362     -1.10125896     -1.84575094
 H     10.25936136     -0.33913880     -2.23399399
 H      9.88672671     -0.52560882     -1.11206890
 H      8.85828260     -1.19697868     -1.63976913
 H      8.96932479     -0.74895788     -0.53974662
 H      8.21251243     -0.72848400      0.31904358
 H      9.15429004     -2.11359459     -0.28327712
 H      7.70238687     -1.57537649     -1.16109550
62
Step 80000 E=        11.5312
 C      0.00000000      0.00000000      0.00000000
 C      1.54000000      0.00000000      0.00000000
 C      2.16637443      1.23746800     -0.66927425
 C      1.67551571      2.57792513     -0.09149193
 C      1.64731036      2.62382864      1.44756535
 C      0.88813542      3.83320217      2.02434007
 C      0.83194479      3.86170348      3.56305067
 C      0.18395275      2.61295549      4.18941699
 C      0.25386739      2.57564240      5.72737658
 C     -0.38641236      3.79676098      6.41331480
 C     -0.43497929      3.69837561      7.94940125
 C     -1.14666643      4.88199738      8.63068011
 C     -1.11328146      4.83132382     10.16948408
 C     -2.15832140      3.88414715     10.78782693
 C     -2.80492336      4.42146687     12.07809567
 C     -3.46630084      3.33525036     12.94660791
 C     -3.93668487      3.83571047     14.32496873
 C     -4.79122110      2.81769870     15.10279896
 C     -5.95650514      3.44812579     15.88783067
 C     -6.98824086      2.42810601     16.40424238
 H     -0.36333333      0.00000000      1.02766186
 H     -0.36333333     -0.88998127     -0.51383093
 H     -0.36333333      0.88998127     -0.51383093
 H      1.88274777      1.01743182      0.18829883
 H      1.88274777      1.03458464     -0.01608072
 H      1.39057412      1.99441747     -0.78443226
 H      2.46345452      1.93647345      0.11254081
 H      1.02331717      2.36751394      0.75613074
 H      2.30088786      2.83177539      0.76441094
 H      1.62542329      3.66816851      1.75897375
 H      0.71589599      3.09643066      1.75935791
 H      0.26995577      3.48663074      2.85249596
 H      1.36473714      4.12208076      2.96108975
 H     -0.11862960      3.43219587      3.87932828
 H      1.26530784      2.93493479      3.93907760
 H      0.77065369      2.32305449      5.06110468
 H     -0.03877611      2.82987063      5.23413690
 H      0.59397084      3.54979057      6.07875241
 H     -0.45580872      3.30359331      6.12050161
 H     -1.03707098      3.43948477      7.21149840
 H     -1.06000899      3.43852447      7.19179677
 H     -0.32585967      4.70186408      8.36074512
 H     -1.41886787      4.02814979      8.28303616
 H     -1.87156074      4.48351677      9.34049801
 H     -0.80831433      4.93579306      9.66543800
 H     -1.52727391      3.87530013     10.48999765
 H     -1.56910891      3.89505941     10.49155596
 H     -1.91039626      3.73983375     11.83940040
 H     -2.99102526      4.48466557     11.15399888
 H     -3.83642952      4.07125161     12.11609955
 H     -3.03294131      3.57474145     12.72552434
 H     -4.06847731      3.82688695     13.71066091
 H     -3.92297116      3.81814532     13.81053191
 H     -4.94280335      3.45582593     14.50248869
 H     -4.19303186      2.96949696     14.93493626
 H     -4.85678142      3.14665768     16.13990447
 H     -5.74384375      3.28682989     15.34881931
 H     -6.89106897      3.04977436     15.49285399
 H     -6.40333570      2.67740528     16.51586916
 H     -6.91040391      2.34982723     17.48863799
 H     -6.79299650      1.45449276     15.95473501
 H     -7.99157667      2.75803599     16.13486632
62
Step 90000 E=         7.9369
 C      0.00000000      0.00000000      0.00000000
 C      1.54000000      0.00000000      0.00000000
 C      2.16637443      1.07789931     -0.90409521
 C      3.69843736      1.18092904     -0.78675790
 C      4.45558685     -0.00713857     -1.40870646
 C      5.97296377      0.21859955     -1.54364947
 C      6.68629109      0.49576561     -0.20725765
 C      8.14600063      0.96174409     -0.36124504
 C      8.84371881      1.28695125      0.97255766
 C     10.30709559      1.74156952      0.81942175
 C     10.94185086      2.25942262      2.12345930
 C     12.37939528      2.78530453      1.95459772
 C     12.93437405      3.50222488      3.19943658
 C     14.45002683      3.32079547      3.40310306
 C     15.03718117      4.18183766      4.53688263
 C     14.71753226      5.68319780      4.41301855
 C     15.62817897      6.58961540      5.26197657
 C     15.52630284      8.08547794      4.91038515
 C     15.67404334      8.38714604      3.40746496
 C     15.97109215      9.86480890      3.09143571
 H     -0.36333333      0.00000000      1.02766186
 H     -0.36333333     -0.88998127     -0.51383093
 H     -0.36333333      0.88998127     -0.51383093
 H      1.88274777      1.03452001     -0.01980694