302
Step 1 E=         0.0902
 C      0.00000000      0.00000000      0.00000000
 C      1.54000000      0.00000000      0.00000000
 C      2.16637443      1.40686000      0.00000000
 C      3.67349648      1.42149821     -0.31617850
 C      4.29987091      2.82835821     -0.31617850
 C      5.80699297      2.84299642     -0.63235699
 C      6.43336740      4.24985642     -0.63235699
 C      7.94048945      4.26449463     -0.94853549
 C      8.56686388      5.67135463     -0.94853549
 C     10.07398593      5.68599284     -1.26471398
 C     10.70036036      7.09285284     -1.26471398
 C     12.23536589      7.09507653     -1.14080646
 C     12.86174032      8.50193653     -1.14080646
 C     14.39674586      8.50416021     -1.01689895
 C     14.99822360      9.88779289     -0.70805410
 C     16.53322913      9.89001657     -0.58414658
 C     17.13470688     11.27364924     -0.27530173
 C     18.66971241     11.27587292     -0.15139421
 C     19.27961729     12.67513420      0.05277219
 C     20.80243469     12.73313493     -0.16918068
 C     21.43919885     14.08402370      0.20662638
 C     22.96201625     14.14202443     -0.01532649
 C     23.64449271     15.35773801      0.63878846
 C     25.18250984     15.32625407      0.56728969
 C     25.86498631     16.54196765      1.22140464
 C     27.40300343     16.51048371      1.14990587
 C     28.08547990     17.72619729      1.80402082
 C     29.62349703     17.69471335      1.73252205
 C     30.30597349     18.91042693      2.38663700
 C     31.84399062     18.87894299      2.31513823
 C     32.52646708     20.09465657      2.96925318
 C     34.06282154     20.00004108      3.01682310
 C     34.74529800     21.21575466      3.67093805
 C     36.28165246     21.12113918      3.71850797
 C     36.96412892     22.33685276      4.37262292
 C     38.50222550     22.26106833      4.38337649
 C     39.18470196     23.47678191      5.03749144
 C     40.72279854     23.40099748      5.04824502
 C     41.40527500     24.61671106      5.70235997
 C     42.94337158     24.54092662      5.71311354
 C     43.62584804     25.75664020      6.36722849
 C     45.16394462     25.68085577      6.37798206
 C     45.84642108     26.89656935      7.03209701
 C     47.38451766     26.82078492      7.04285059
 C     48.06699412     28.03649850      7.69696553
 C     49.60509070     27.96071407      7.70771911
 C     50.28756717     29.17642765      8.36183406
 C     51.81027838     29.02286052      8.53320410
 C     52.49275484     30.23857410      9.18731905
 C     54.01546606     30.08500696      9.35868909
 C     54.69794252     31.30072054     10.01280404
 C     56.22065374     31.14715341     10.18417409
 C     56.90397356     32.36525817     10.83293815
 C     58.42668477     32.21169104     11.00430820
 C     59.11000459     33.42979580     11.65307226
 C     60.63271581     33.27622866     11.82444231
 C     61.36508659     34.59631552     12.12875092
 C     62.89978493     34.47054176     12.15070459
 C     63.63215570     35.79062862     12.45501320
 C     65.16685405     35.66485486     12.47696688
 C     65.89922482     36.98494172     12.78127549
 C     67.43392316     36.85916796     12.80322916
 C     68.17329489     38.21003921     12.79449365
 C     69.70799323     38.08426545     12.81644733
 C     70.44736495     39.43513671     12.80771182
 C     71.98206329     39.30936295     12.82966549
 C     72.72275766     40.62473110     12.52506991
 C     74.25745600     40.49895734     12.54702359
 C     74.99815036     41.81432550     12.24242801
 C     76.53284871     41.68855174     12.26438168
 C     77.27354307     43.00391990     11.95978610
 C     78.80824141     42.87814614     11.98173977
 C     79.54893578     44.19351429     11.67714419
 C     81.08363412     44.06774053     11.69909787
 C     81.82432848     45.38310869     11.39450229
 C     83.31643909     45.19897759     11.06088321
 C     84.05713345     46.51434575     10.75628763
 C     85.54924405     46.33021464     10.42266855
 C     86.28993842     47.64558280     10.11807297
 C     87.76767974     47.45648095      9.72804594
 C     88.50837410     48.77184911      9.42345036
 C     89.98611542     48.58274725      9.03342333
 C     90.72680979     49.89811541      8.72882775
 C     92.20455111     49.70901356      8.33880073
 C     92.94524547     51.02438172      8.03420515
 C     94.42298679     50.83527986      7.64417812
 C     95.16368116     52.15064802      7.33958254
 C     96.64142248     51.96154617      6.94955551
 C     97.38211684     53.27691433      6.64495993
 C     98.85985816     53.08781247      6.25493290
 C     99.60055253     54.40318063      5.95033732
 C    100.95440006     54.21018222      5.24220705
 C    101.69509442     55.52555038      4.93761147
 C    102.88836251     55.36462503      3.97749986
 C    103.62905687     56.67999319      3.67290428
 C    104.68507817     56.56059587      2.55838048
 C    105.42577254     57.87596403      2.25378490
 C    106.60105133     57.71990648      1.27094930
 C    107.34174569     59.03527464      0.96635372
 C    108.51702448     58.87921708     -0.01648187
 H     -0.36333333      0.00000000      1.02766186
 H     -0.36333333     -0.88998127     -0.51383093
 H     -0.36333333      0.88998127     -0.51383093
 H      1.88274777     -0.52778528     -0.88998127
 H      1.88274777     -0.52778528      0.88998127
 H      2.01868355      1.84780036      0.98582910
 H      1.65323818      2.01050713     -0.74859958
 H      3.82118736      0.98055785     -1.30200759
 H      4.18663274      0.81785109      0.43242109
 H      4.15218004      3.26929857      0.66965060
 H      3.78673466      3.43200534     -1.06477808
 H      5.95468384      2.40205606     -1.61818609
 H      6.32012922      2.23934930      0.11624259
 H      6.28567652      4.69079678      0.35347210
 H      5.92023114      4.85350355     -1.38095658
 H      8.08818033      3.82355427     -1.93436458
 H      8.45362570      3.66084751     -0.19993590
 H      8.41917300      6.11229499      0.03729361
 H      8.05372763      6.27500176     -1.69713507
 H     10.22167681      5.24505248     -2.25054308
 H     10.58712219      5.08234572     -0.51611440
 H     10.62673374      7.50081767     -0.25662479
 H     10.13385641      7.72026080     -1.95285099
 H     12.64784737      6.53624380     -1.98084517
 H     12.50463260      6.60000712     -0.20779964
 H     12.44925885      9.06076925     -0.30076776
 H     12.59247362      8.99700593     -2.07381329
 H     14.81710300      8.15005043     -1.95817794
 H     14.67681693      7.82179539     -0.21437889
 H     14.57786646     10.24190266      0.23322490
 H     14.71815252     10.57015771     -1.51057415
 H     16.95358627      9.53590679     -1.52542557
 H     16.81330021      9.20765174      0.21837348
 H     16.71434974     11.62775902      0.66597726
 H     16.85463580     11.95601407     -1.07782178
 H     19.08779919     10.84946617     -1.06324986
 H     18.94573095     10.65407889      0.70024301
 H     19.06957735     12.99498758      1.07339800
 H     18.80469668     13.36163194     -0.64813528
 H     21.00271920     12.54124602     -1.22329868
 H     21.26695813     11.95496674      0.43643655
 H     21.23891433     14.27591261      1.26074438
 H     20.97467541     14.86219189     -0.39899086
 H     23.15084533     14.17910794     -1.08820504
 H     23.40369706     13.23630609      0.40023620
 H     23.35078174     15.39232012      1.68790139
 H     23.29628939     16.25893131      0.13410530
 H     25.47622081     15.29167197     -0.48182324
 H     25.53071316     14.42506077      1.07197285
 H     25.57127534     16.57654976      2.27051757
 H     25.51678299     17.44316095      0.71672148
 H     27.69671440     16.47590160      0.10079294
 H     27.75120675     15.60929041      1.65458903
 H     27.79176893     17.76077939      2.85313375
 H     27.73727658     18.62739059      1.29933766
 H     29.91720799     17.66013124      0.68340912
 H     29.97170034     16.79352005      2.23720521
 H     30.01226252     18.94500903      3.43574993
 H     29.95777017     19.81162023      1.88195384
 H     32.13770159     18.84436088      1.26602530
 H     32.19219394     17.97774969      2.81982139
 H     32.15695478     20.18674993      3.99056581
 H     32.25531260     20.98570636      2.40303280
 H     34.43233383     19.90794772      1.99551048
 H     34.33397602     19.10899129      3.58304348
 H     34.37578570     21.30784803      4.69225068
 H     34.47414352     22.10680445      3.10471767
 H     36.65116475     21.02904581      2.69719535
 H     36.55280694     20.23008939      4.28472835
 H     36.61740866     22.41109215      5.40333800
 H     36.66887528     23.23162754      3.82462348
 H     38.84894576     22.18682894      3.35266142
 H     38.79747914     21.36629355      4.93137594
 H     38.83798170     23.55102130      6.06820652
 H     38.88944832     24.37155669      4.48949200
 H     41.06951880     23.32675808      4.01752994
 H     41.01805218     22.50622270      5.59624446
 H     41.05855474     24.69095045      6.73307505
 H     41.11002136     25.51148583      5.15436053
 H     43.29009184     24.46668723      4.68239846
 H     43.23862522     23.64615185      6.26111298
 H     43.27912778     25.83087960      7.39794357
 H     43.33059440     26.65141498      5.81922905
 H     45.51066488     25.60661638      5.34726698
 H     45.45919826     24.78608100      6.92598150
 H     45.49970083     26.97080875      8.06281209
 H     45.55116745     27.79134413      6.48409757
 H     47.73123792     26.74654553      6.01213551
 H     47.67977130     25.92601014      7.59085003
 H     47.72027387     28.11073789      8.72768061
 H     47.77174049     28.93127328      7.14896609
 H     49.95181096     27.88647468      6.67700403
 H     49.90034434     27.06593929      8.25571855
 H     49.84550835     29.32900978      9.34641656
 H     50.09919575     30.05122025      7.73945626
 H     52.25233719     28.87027839      7.54862160
 H     51.99864979     28.14806792      9.15558190
 H     52.05069603     30.39115622     10.17190155
 H     52.30438343     31.11336669      8.56494125
 H     54.45752487     29.93242484      8.37410659
 H     54.20383747     29.21021437      9.98106689
 H     54.25588371     31.45330267     10.99738654
 H     54.50957111     32.17551314      9.39042624
 H     56.66222694     30.99026789      9.20005009
 H     56.40887798     30.27487010     10.81010816
 H     56.46240035     32.52214369     11.81706215
 H     56.71574931     33.23754148     10.20700408
 H     58.86825798     32.05480551     10.02018420
 H     58.61490901     31.33940773     11.63024227
 H     58.66843138     33.58668132     12.63719626
 H     58.92178035     34.30207911     11.02713819
 H     61.04133751     32.86217483     10.90265723
 H     60.81708850     32.58459624     12.64648325
 H     61.03646548     34.95349329     13.10472849
 H     61.09171933     35.32397057     11.36462496
 H     63.22840603     34.11336399     11.17472703
 H     63.17315219     33.74288672     12.91483055
 H     63.30353460     36.14780639     13.43099077
 H     63.35878844     36.51828367     11.69088725
 H     65.49547515     35.30767709     11.50098931
 H     65.44022130     34.93719981     13.24109283
 H     65.57060372     37.34211949     13.75725305
 H     65.62585756     37.71259676     12.01714953
 H     67.74402194     36.29302793     11.92492158
 H     67.72055993     36.31737756     13.70456291
 H     67.86319611     38.77617924     13.67280124
 H     67.88665813     38.75182961     11.89315990
 H     70.01809201     37.51812542     11.93813974
 H     69.99462999     37.54247506     13.71778108
 H     70.13726617     40.00127674     13.68601940
 H     70.16072819     39.97692710     11.90637807
 H     72.27606000     38.57001292     12.08466383
 H     72.28380975     38.96742061     13.81967787
 H     72.42876095     41.36408113     13.27007158
 H     72.42101121     40.96667344     11.53505753
 H     74.55145270     39.75960732     11.80202192
 H     74.55920245     40.15701500     13.53703597
 H     74.70415366     42.55367552     12.98742967
 H     74.69640391     42.15626784     11.25241563
 H     76.82684541     40.94920172     11.51938002
 H     76.83459516     41.34660940     13.25439406
 H     76.97954637     43.74326992     12.70478776
 H     76.97179662     43.34586224     10.96977372
 H     79.10223812     42.13879611     11.23673811
 H     79.10998786     42.53620380     12.97175215
 H     79.25493907     44.93286432     12.42214586
 H     79.24718932     44.53545663     10.68713181
 H     81.37763082     43.32839051     10.95409620
 H     81.38538057     43.72579820     12.68911025
 H     81.74573592     46.03083547     12.26764216
 H     81.33913158     45.86045994     10.54313882
 H     83.39503165     44.55125081     10.18774334
 H     83.80163599     44.72162634     11.91224668
 H     83.97854089     47.16207252     11.62942750
 H     83.57193655     46.99169699      9.90492416
 H     85.62783662     45.68248787      9.54952868
 H     86.03444096     45.85286340     11.27403202
 H     86.24783719     48.27621363     11.00612265
 H     85.77903149     48.14375956      9.29412271
 H     87.80978097     46.82585012      8.83999626
 H     88.27858667     46.95830419     10.55199620
 H     88.46627287     49.40247994     10.31150005
 H     87.99746717     49.27002586      8.59950011
 H     90.02821665     47.95211642      8.14537365
 H     90.49702236     48.08457050      9.85737359
 H     90.68470856     50.52874624      9.61687744
 H     90.21590286     50.39629217      7.90487750
 H     92.24665234     49.07838273      7.45075104
 H     92.71545804     49.21083680      9.16275098
 H     92.90314424     51.65501255      8.92225483
 H     92.43433854     51.52255847      7.21025489
 H     94.46508802     50.20464903      6.75612843
 H     94.93389372     50.33710311      8.46812837
 H     95.12157993     52.78127885      8.22763222
 H     94.65277422     52.64882478      6.51563228
 H     96.68352371     51.33091534      6.06150583
 H     97.15232941     51.46336941      7.77350577
 H     97.34001561     53.90754516      7.53300961
 H     96.87120991     53.77509108      5.82100967
 H     98.90195939     52.45718164      5.36688322
 H     99.37076509     52.58963572      7.07888316
 H     99.77729749     54.92298459      6.89196626
 H     98.96375722     55.01510786      5.31148146
 H    100.77765509     53.69037826      4.30057811
 H    101.59119536     53.59825499      5.88106291
 H    102.06422022     55.93656165      5.87724750
 H    100.98640143     56.22220579      4.48981074
 H    102.51923671     54.95361375      3.03786382
 H    103.59705549     54.66796962      4.42530058
 H    104.12790797     57.01127078      4.58367468
 H    102.89361519     57.42522369      3.36982503
 H    104.18622707     56.22931827      1.64761007
 H    105.42051985     55.81536537      2.86145973
 H    105.81331635     58.27598424      3.19074467
 H    104.71215894     58.57995819      1.82571029
 H    106.21350751     57.31988627      0.33398953
 H    107.31466492     57.01591232      1.69902391
 H    107.72928951     59.43529485      1.90331350
 H    106.62813210     59.73926879      0.53827912
 H    108.81471713     59.86064567     -0.38563906
 H    108.20927043     58.25382541     -0.85449899
 H    109.35893907     58.41272385      0.49504907
302
Step 10000 E=        44.2214
 C      0.00000000      0.00000000      0.00000000
 C      1.54000000      0.00000000      0.00000000
 C      2.16637443     -1.39621914     -0.17270548
 C      3.70604618     -1.40026721     -0.14116976
 C      4.35766759     -0.56689146     -1.26030979
 C      4.25034841     -1.20323107     -2.65857817
 C      3.73265176     -0.24310028     -3.74565639
 C      3.54395830     -0.90173035     -5.12485950
 C      3.00016243      0.05162915     -6.20513340
 C      4.03903213      1.05896544     -6.73203316
 C      5.29735838      0.40485075     -7.33232394
 C      6.56771367      1.26762079     -7.21645638
 C      7.80736487      0.65093055     -7.89066558
 C      8.87908009      1.68102251     -8.29307959
 C     10.05576683      1.08323502     -9.08658978
 C     11.10140821      2.12158005     -9.53388579
 C     12.08782638      1.60000376    -10.59527044
 C     13.27017721      2.54747365    -10.87085584
 C     14.09883603      2.17022594    -12.11287384
 C     15.34962268      3.04430848    -12.32050922
 C     16.12141640      2.73552105    -13.61688292
 C     15.23715045      2.69152419    -14.87693768
 C     16.02819765      2.58380485    -16.19384347
 C     15.18024319      2.82909443    -17.45574927
 C     15.88483688      2.44119968    -18.76902205
 C     14.92232274      2.17520739    -19.94137636
 C     15.37155915      1.03534902    -20.87438738
 C     14.28679969      0.57193228    -21.86440850
 C     13.06372537     -0.08026804    -21.19334669
 C     13.31661446     -1.51246354    -20.68692477
 C     12.32575622     -1.97796380    -19.60382299
 C     12.26091309     -1.05236749    -18.37473111
 C     11.40454932     -1.60392131    -17.21972917
 C     11.54817548     -0.81838283    -15.90295250
 C     10.37941330     -1.02248862    -14.92115018
 C     10.53276537     -0.25285763    -13.59610252
 C      9.35169222     -0.43612399    -12.62497964
 C      9.06113470     -1.90428916    -12.26211964
 C      8.10860142     -2.07678147    -11.06440233
 C      8.06311578     -3.50951035    -10.50153554
 C      6.99007596     -3.72292792     -9.41772813
 C      7.07344897     -5.09041824     -8.71443646
 C      5.97653137     -5.31939687     -7.65805558
 C      4.59450575     -4.77272551     -8.06148539
 C      3.45732149     -5.17726058     -7.10505279
 C      2.23077786     -4.24775386     -7.16169182
 C      1.04564789     -4.72131908     -6.29983167
 C      0.03221420     -3.61138169     -5.96428565
 C     -1.16149667     -4.08856440     -5.11637585
 C     -2.39192074     -3.16551833     -5.19149273
 C     -3.70129131     -3.82784015     -4.72407586
 C     -4.94264606     -2.92678709     -4.86097648
 C     -6.25732640     -3.60158824     -4.42754943
 C     -7.50105237     -2.70647147     -4.58088462
 C     -8.80344278     -3.35113066     -4.07118499
 C     -9.75769571     -2.36592779     -3.37091600
 C     -9.15042812     -1.67751529     -2.13442326
 C     -9.84906047     -0.36191545     -1.74364213
 C     -9.08564504      0.46429288     -0.69189279
 C     -9.61249891      1.90125749     -0.52113646
 C    -11.11599287      1.98289562     -0.19796297
 C    -11.47524948      1.53085786      1.22969124
 C    -12.98710946      1.36806029      1.47336389
 C    -13.33446219      0.57282051      2.74558234
 C    -14.83444946      0.25924106      2.89824567
 C    -15.70469870      1.49320987      3.20087955
 C    -17.21933461      1.22497869      3.12651505
 C    -18.06900516      2.19243373      3.97131722
 C    -17.86442884      3.67740747      3.61832780
 C    -18.73844302      4.64280050      4.44034697
 C    -18.61675477      6.11698581      4.01189668
 C    -17.19495907      6.69312602      4.14665360
 C    -16.78322770      7.01237116      5.59584642
 C    -15.49670729      7.85091244      5.71123174
 C    -15.57779406      9.22161652      5.01395471
 C    -14.20824506      9.88214691      4.76975159
 C    -14.29454159     11.32519081      4.23892469
 C    -12.99521297     12.13406631      4.40941094
 C    -13.12047352     13.61378222      4.00154991
 C    -12.21334066     14.56397718      4.80519132
 C    -12.27261903     14.34721122      6.32870653
 C    -11.42166189     15.34439688      7.13684804
 C    -11.31850016     15.00856220      8.63623882
 C    -10.75780168     16.15524024      9.49783425
 C     -9.27169100     16.46471804      9.23841462
 C     -8.33846611     15.25338029      9.42104039
 C     -6.89494543     15.49709779      8.94307612
 C     -6.17510277     16.64053754      9.68197535
 C     -5.05080935     17.30417499      8.86518306
 C     -4.37723590     18.49230026      9.57670055
 C     -3.48461987     19.34790619      8.65867271
 C     -2.58032988     20.34070263      9.41247299
 C     -2.01722342     21.46981551      8.52951477
 C     -1.32641211     22.59711994      9.31917573
 C     -0.31588226     23.41312412      8.49179033
 C      0.65946281     24.24885835      9.34140806
 C      1.54331685     25.20616355      8.52045204
 C      2.45244121     26.10801772      9.37587706
 C      3.09877360     27.26710680      8.59461721
 C      3.46711981     28.48175072      9.46671881
 H     -0.36333333      0.00000000      1.02766186
 H     -0.36333333     -0.88998127     -0.51383093
 H     -0.36333333      0.88998127     -0.51383093
 H      1.88274777     -0.87554680     -0.55139982
 H      1.88274777     -0.86882036     -0.56193875
 H      2.01868355     -1.71280450     -1.20520784
 H      1.65323818     -2.08719828      0.49612858
 H      4.03029666     -0.99533712      0.81747159
 H      4.05158390     -0.36648596     -0.14111494
 H      4.01557963      0.46352877     -1.16382156
 H      3.84690629     -0.79157476     -2.19665390
 H      3.29175576     -0.91828144     -3.09217228
 H      4.60715274     -0.48049404     -3.39236414
 H      4.41433613      0.60524914     -3.80656357
 H      2.74306016      0.10638601     -3.45126244
 H      2.82931186     -1.71804996     -5.01996545
 H      4.50545664     -1.29997103     -5.44893557
 H      3.33973238      1.06120177     -5.97371306
 H      2.03455012      0.43201567     -5.87196833
 H      5.03402607      0.66010513     -6.53455529
 H      4.39210569      1.65791751     -5.89257174
 H      4.99994844     -0.16837348     -8.21042490
 H      5.72318127     -0.26691987     -6.58700582
 H      6.75384134      1.46353695     -6.16048605
 H      7.12067317      1.19095022     -8.15264943
 H      7.58625265      0.50673868     -8.94821846
 H      8.00543974     -0.31492032     -7.42590924
 H      9.85967073      1.22112627     -8.17045231
 H      8.38444848      2.51084301     -8.79789391
 H      9.66056378      0.62735770     -9.99438404
 H     10.52973028      0.31771034     -8.47223596
 H     11.50054096      2.61074663     -8.64534255
 H     10.60395179      2.86000776    -10.16266367
 H     11.51706034      1.28944762    -11.47041672
 H     12.61415709      0.74014706    -10.18087639
 H     13.76978255      2.75626580     -9.92486412
 H     13.65657024      2.33259782    -11.86716343
 H     13.52128970      2.42654950    -13.00103963
 H     14.27642908      1.09497870    -12.09277184
 H     16.04533249      2.84633531    -11.50509859
 H     15.04515144      4.09054335    -12.29240469
 H     15.58831159      1.95150967    -14.15467974
 H     16.43352909      1.69151973    -13.58955320
 H     14.93540154      3.71041447    -15.11965193
 H     14.35307346      2.09398531    -14.65455254
 H     16.71892173      1.74466540    -16.11110761
 H     16.59213200      3.50639020    -16.33137280
 H     14.75389918      3.83028605    -17.39293110
 H     14.37684017      2.09276629    -17.47730082
 H     16.13388051      1.38097989    -18.72417478
 H     16.80067399      3.02633968    -18.85241009
 H     14.34021356      3.07950106    -20.11886399
 H     14.81498255      1.09688259    -20.05882297
 H     15.45419130      0.12227863    -20.28483299
 H     16.34816695      1.29275553    -21.28436189
 H     13.99726766      1.42414338    -22.47923160
 H     13.31325123      0.85139494    -21.46166289
 H     12.61885412      0.64533391    -20.51239782
 H     13.41797206     -0.73289316    -20.39541828
 H     14.12944528     -1.48093493    -19.96138220
 H     13.61120266     -2.12922448    -21.53599705
 H     11.31336123     -1.84130628    -19.98392969
 H     11.99242608     -1.10318969    -19.04546713
 H     11.96147100     -0.05907488    -18.70910251
 H     13.25514662     -1.00191688    -17.93082298
 H     11.82523207     -2.55967745    -16.90722920
 H     10.38998668     -1.75647459    -17.58781901
 H     11.25228441      0.21458455    -16.08605596
 H     12.59436148     -0.84812652    -15.59846905
 H     10.33316985     -2.07930629    -14.65828529
 H      9.45607490     -0.73199944    -15.42231106
 H     10.60726695      0.81044936    -13.82397917
 H     11.45024940     -0.58556749    -13.11068805
 H      9.56138403     -1.29592545    -11.98868505
 H      9.65534681     -1.13281770    -11.84362711
 H      9.95357313     -2.32618353    -11.79988725
 H      8.83685235     -2.44645755    -13.18073320
 H      7.16363660     -1.58973483    -11.30508271
 H      8.55688420     -1.59168157    -10.19732642
 H      9.06841327     -3.78442911    -10.18232301
 H      7.73837838     -4.18015021    -11.29707799
 H      6.01607292     -3.49335353     -9.84983190
 H      7.19310256     -3.03765000     -8.59476131
 H      8.05443815     -5.17625267     -8.24711145
 H      6.96011920     -5.87048746     -9.46726338
 H      5.22586841     -4.53679413     -7.76822848
 H      6.06100128     -4.53920646     -6.90157177
 H      4.28827103     -5.26323796     -8.98545392
 H      4.68682321     -3.70024094     -8.23281645
 H      3.69691220     -4.80267680     -6.10987276
 H      3.40143585     -6.26553691     -7.07992466
 H      1.84147884     -4.25563293     -8.17977050
 H      2.55303033     -3.23893990     -6.90372331
 H      1.41027916     -4.91119552     -5.29033131
 H      0.65962926     -5.64694348     -6.72680837
 H     -0.36160443     -3.21276651     -6.89922566
 H      0.55485698     -2.82189090     -5.42424044
 H     -0.77675907     -4.49552693     -4.18125100
 H     -1.68149667     -4.87242203     -5.66707287
 H     -2.71247053     -3.10561659     -6.23156946
 H     -2.09891696     -2.17482493     -4.84396520
 H     -3.57411521     -4.14594210     -3.68931145
 H     -3.88770116     -4.69924366     -5.35177586
 H     -5.05041135     -2.64874854     -5.90939491
 H     -4.78317598     -2.03027105     -4.26187025
 H     -6.16235640     -3.89782479     -3.38288460
 H     -6.40731278     -4.48771903     -5.04429599
 H     -7.59129944     -2.42175950     -5.62916634
 H     -7.35756805     -1.81327011     -3.97285207
 H     -8.67864145     -3.58634145     -3.01420792
 H     -8.97226020     -4.27121762     -4.63068537
 H     -9.16270880     -1.56234308     -2.93693191
 H     -9.15915529     -1.59222387     -2.89005052
 H     -8.32948068     -1.04121833     -2.46498565
 H     -8.76624782     -2.44876673     -1.46683304
 H    -10.89669097     -0.57896086     -1.53516758
 H     -9.78124996      0.32571019     -2.58665620
 H     -8.10139459      0.70507978     -1.09360501
 H     -9.79538719      1.12466902     -0.19362634
 H    -10.61739860      1.94998018     -0.94054401
 H     -9.53367530      2.41155259     -1.48107695
 H    -11.36271859      1.17546489      0.49144405
 H    -11.66741590      1.50996167     -1.01059211
 H    -10.77692158      1.99906957      1.92338853
 H    -11.36895965      0.44736776      1.28309245
 H    -13.36928423      0.62589625      0.77248231
 H    -13.46973587      2.32724196      1.28590116
 H    -12.90307396      1.09089131      3.60209086
 H    -12.89211772     -0.41977325      2.66079429
 H    -15.15285486     -0.32217676      2.03298773
 H    -15.40206361      1.06211011      2.42780390
 H    -16.40209884      1.63174168      2.37471855
 H    -15.50249818      1.81284611      4.22315526
 H    -17.46542627      0.44654923      3.84872449
 H    -17.45672789      0.87630377      2.12144280
 H    -17.43444650      3.02123603      4.28519945
 H    -17.75601217      2.10442689      5.01169705
 H    -18.12453595      3.81934585      2.56937700
 H    -16.81331769      3.92376464      3.76857258
 H    -18.21494956      5.59552407      4.52017427
 H    -19.78449014      4.39022531      4.26687884
 H    -18.91091048      6.19512477      2.96525122
 H    -17.73433492      6.21858523      3.38014296
 H    -16.52421797      6.09925285      3.52575020
 H    -16.89022631      6.61319373      5.19013277
 H    -16.83685063      6.09239412      6.17796910
 H    -17.48745855      7.73959920      5.99994825
 H    -15.28591523      8.29108397      4.73659554
 H    -14.68447756      7.29937745      5.23774254
 H    -16.20219208      9.87806155      5.62001331
 H    -16.03915259      9.08207972      4.03631582
 H    -13.61234369      9.21531383      4.14658612
 H    -14.20941709     10.86097951      5.24931949
 H    -14.83997737     11.92604281      4.96664488
 H    -14.84143031     11.31146065      3.29614995
 H    -12.19795645     11.61887820      3.87362809
 H    -12.75283149     12.17343628      5.47139080
 H    -13.86383959     14.08483527      4.64467969
 H    -13.45688277     13.65648383      2.96564191
 H    -11.17835672     14.25469564      4.65940661
 H    -11.97072612     14.08540207      5.75398215
 H    -11.96895059     13.32214487      6.54113174
 H    -13.30138821     14.49670388      6.65640442
 H    -11.77621360     16.35204500      6.91996474
 H    -10.38415823     15.24757969      6.81698467
 H    -10.87336374     14.01860312      8.73591126
 H    -12.32470932     14.99835280      9.05521244
 H    -11.41127848     17.02024034      9.38450774
 H     -9.87267674     16.55471859      9.00278788
 H     -9.15624879     16.73636525      8.18913825
 H     -8.73611503     15.51999546      9.14483244
 H     -8.65175066     14.47190936      8.72875722
 H     -8.44001315     14.89377954     10.44499131
 H     -6.65434622     16.54835231      9.10143001
 H     -6.92305570     15.75144443      7.88353962
 H     -6.14811627     16.39859226     10.74444145
 H     -6.74506667     17.55754666      9.53252495
 H     -5.48415881     17.70695072      7.94971599
 H     -4.31399949     16.54140241      8.61341091
 H     -3.95371593     18.13445860     10.51514617
 H     -5.13893218     19.24366644      9.78494957
 H     -4.12899429     19.93374879      8.00318049
 H     -2.86848675     18.67823688      8.05865354
 H     -1.93662444     19.77476029     10.08586186
 H     -3.21527632     21.00957935      9.99346090