152
Step 1 E=        -0.4899
 C      0.00000000      0.00000000      0.00000000
 C      1.54000000      0.00000000      0.00000000
 C      2.16637443      1.40686000      0.00000000
 C      3.67349648      1.42149821     -0.31617850
 C      4.29987091      2.82835821     -0.31617850
 C      5.80699297      2.84299642     -0.63235699
 C      6.43336740      4.24985642     -0.63235699
 C      7.94048945      4.26449463     -0.94853549
 C      8.56686388      5.67135463     -0.94853549
 C     10.07398593      5.68599284     -1.26471398
 C     10.70036036      7.09285284     -1.26471398
 C     12.17989813      7.11977237     -1.69114492
 C     12.80627256      8.52663237     -1.69114492
 C     14.28581032      8.55355189     -2.11757585
 C     14.99709705      9.88829446     -1.82751815
 C     16.47663481      9.91521398     -2.25394908
 C     17.18792154     11.24995655     -1.96389137
 C     18.66745930     11.27687607     -2.39032231
 C     19.35017892     12.64371814     -2.19735421
 C     20.69800502     12.77963002     -2.92981086
 C     21.46495960     14.07255427     -2.59555416
 C     22.81278571     14.20846615     -3.32801082
 C     23.71671232     15.32558377     -2.77432780
 C     25.12921608     15.34998198     -3.38738396
 C     26.03314270     16.46709960     -2.83370093
 C     27.44564646     16.49149781     -3.44675709
 C     28.34957307     17.60861543     -2.89307406
 C     29.76207683     17.63301364     -3.50613022
 C     30.66600345     18.75013126     -2.95244720
 C     32.07850721     18.77452947     -3.56550336
 C     32.98243382     19.89164709     -3.01182033
 C     34.43353760     19.83498766     -3.52435085
 C     35.33746422     20.95210528     -2.97066782
 C     36.78856800     20.89544584     -3.48319834
 C     37.69249461     22.01256346     -2.92951531
 C     39.13279198     21.98032204     -3.47366969
 C     40.03671859     23.09743966     -2.91998667
 C     41.47701596     23.06519825     -3.46414105
 C     42.38094257     24.18231587     -2.91045802
 C     43.82123994     24.15007445     -3.45461240
 C     44.72516656     25.26719207     -2.90092937
 C     46.16546392     25.23495065     -3.44508375
 C     47.06939054     26.35206827     -2.89140073
 C     48.50968790     26.31982685     -3.43555511
 C     49.41361452     27.43694447     -2.88187208
 C     50.85391188     27.40470306     -3.42602646
 C     51.75783850     28.52182068     -2.87234343
 C     53.23812417     28.38714261     -3.27510411
 C     54.14205078     29.50426023     -2.72142108
 C     55.62233645     29.36958217     -3.12418177
 H     -0.36333333      0.00000000      1.02766186
 H     -0.36333333     -0.88998127     -0.51383093
 H     -0.36333333      0.88998127     -0.51383093
 H      1.88274777     -0.52778528     -0.88998127
 H      1.88274777     -0.52778528      0.88998127
 H      2.01868355      1.84780036      0.98582910
 H      1.65323818      2.01050713     -0.74859958
 H      3.82118736      0.98055785     -1.30200759
 H      4.18663274      0.81785109      0.43242109
 H      4.15218004      3.26929857      0.66965060
 H      3.78673466      3.43200534     -1.06477808
 H      5.95468384      2.40205606     -1.61818609
 H      6.32012922      2.23934930      0.11624259
 H      6.28567652      4.69079678      0.35347210
 H      5.92023114      4.85350355     -1.38095658
 H      8.08818033      3.82355427     -1.93436458
 H      8.45362570      3.66084751     -0.19993590
 H      8.41917300      6.11229499      0.03729361
 H      8.05372763      6.27500176     -1.69713507
 H     10.22167681      5.24505248     -2.25054308
 H     10.58712219      5.08234572     -0.51611440
 H     10.62673374      7.50081767     -0.25662479
 H     10.13385641      7.72026080     -1.95285099
 H     12.25352475      6.71180754     -2.69923411
 H     12.74640208      6.49236442     -1.00300791
 H     12.73264594      8.93459720     -0.68305572
 H     12.23976861      9.15404032     -2.37928192
 H     14.33700729      8.36380281     -3.18971118
 H     14.81103402      7.76203809     -1.58302373
 H     14.94590008     10.07804354     -0.75538282
 H     14.47187335     10.67980826     -2.36207026
 H     16.52783178      9.72546490     -3.32608441
 H     17.00185851      9.12370018     -1.71939696
 H     17.13672457     11.43970563     -0.89175605
 H     16.66269784     12.04147035     -2.49844349
 H     18.72482403     11.01107313     -3.44585918
 H     19.20794921     10.53733180     -1.79952207
 H     19.52269021     12.79324874     -1.13153037
 H     18.67863658     13.41775752     -2.56882955
 H     20.50824504     12.76140011     -4.00301113
 H     21.32359435     11.92975067     -2.65696828
 H     21.65471958     14.09078418     -1.52235389
 H     20.83937027     14.92243362     -2.86839675
 H     22.61228639     14.41888984     -4.37854492
 H     23.34634391     13.26184136     -3.24247052
 H     23.81279321     15.18661936     -1.69750035
 H     23.23904473     16.28441827     -2.97574793
 H     25.03313519     15.48894639     -4.46421140
 H     25.60688367     14.39114748     -3.18596382
 H     26.12922359     16.32813519     -1.75687348
 H     25.55547511     17.42593410     -3.03512106
 H     27.34956556     16.63046223     -4.52358454
 H     27.92331404     15.53266331     -3.24533695
 H     28.44565396     17.46965102     -1.81624661
 H     27.87190548     18.56744994     -3.09449420
 H     29.66599594     17.77197806     -4.58295767
 H     30.23974442     16.67417914     -3.30471009
 H     30.76208434     18.61116685     -1.87561975
 H     30.18833586     19.70896577     -3.15386733
 H     31.98242632     18.91349389     -4.64233081
 H     32.55617480     17.81569497     -3.36408322
 H     32.99946780     19.81163897     -1.92489414
 H     32.55485146     20.85234306     -3.29876385
 H     34.41650363     19.91499578     -4.61127704
 H     34.86111996     18.87429169     -3.23740733
 H     35.35449819     20.87209715     -1.88374163
 H     34.90988186     21.91280125     -3.25761134
 H     36.77153402     20.97545396     -4.57012453
 H     37.21615036     19.93474987     -3.19625482
 H     37.73364817     21.91411031     -1.84475112
 H     37.24890075     22.97338356     -3.19056937
 H     39.09163842     22.07877520     -4.55843389
 H     39.57638584     21.01950194     -3.21261563
 H     40.07787215     22.99898651     -1.83522247
 H     39.59312473     24.05825976     -3.18104073
 H     41.43586240     23.16365140     -4.54890524
 H     41.92060982     22.10437815     -3.20308699
 H     42.42209613     24.08386271     -1.82569382
 H     41.93734871     25.14313597     -3.17151208
 H     43.78008639     24.24852760     -4.53937660
 H     44.26483380     23.18925435     -3.19355834
 H     44.76632011     25.16873891     -1.81616518
 H     44.28157269     26.22801217     -3.16198343
 H     46.12431037     25.33340381     -4.52984795
 H     46.60905778     24.27413055     -3.18402969
 H     47.11054409     26.25361512     -1.80663653
 H     46.62579668     27.31288837     -3.15245479
 H     48.46853435     26.41828001     -4.52031930
 H     48.95328177     25.35900675     -3.17450105
 H     49.45476807     27.33849132     -1.79710788
 H     48.97002066     28.39776457     -3.14292614
 H     50.81275833     27.50315621     -4.51079065
 H     51.29750575     26.44388296     -3.16497240
 H     51.69580792     28.50520333     -1.78423679
 H     51.38742545     29.47766343     -3.24282798
 H     53.30015475     28.40375995     -4.36321076
 H     53.60853721     27.43129986     -2.90461956
 H     54.08002020     29.48764289     -1.63331444
 H     53.77163774     30.46010299     -3.09190564
 H     55.70178023     29.33780748     -4.21081834
 H     56.03138033     28.45123606     -2.70296505
 H     56.18158345     30.22437890     -2.74383278
152
Step 10000 E=        29.7439
 C      0.00000000      0.00000000      0.00000000
 C      1.54000000      0.00000000      0.00000000
 C      2.16637443     -0.54473687     -1.29711866
 C      3.70028354     -0.67192009     -1.24664817
 C      4.30284698     -1.45725047     -2.42638267
 C      5.81020430     -1.73972835     -2.28609666
 C      6.56296757     -1.80411829     -3.62803608
 C      6.28174635     -3.07993464     -4.44339322
 C      7.04788118     -3.15238617     -5.77733032
 C      6.97116808     -4.52570883     -6.46993409
 C      7.72414513     -4.59353548     -7.81158424
 C      9.05931648     -3.82617221     -7.82001484
 C      9.87478107     -4.00220543     -9.11447605
 C     11.11431194     -3.09258214     -9.20250264
 C     12.12490463     -3.29857416     -8.05888132
 C     13.13165579     -4.43654585     -8.31002373
 C     14.25491265     -4.52220939     -7.25999716
 C     13.76181952     -4.41440982     -5.80506127
 C     14.83959699     -3.94168549     -4.81182039
 C     14.36815632     -3.90570547     -3.34619795
 C     13.11669325     -3.03937733     -3.11185688
 C     13.33869316     -1.53668144     -3.36527569
 C     12.73132048     -1.02771602     -4.68575008
 C     12.43215107      0.48290782     -4.69639323
 C     11.76828736      0.98084896     -5.99367484
 C     12.66710595      0.87106799     -7.23933663
 C     11.89126880      0.81182697     -8.56830887
 C     12.78995991      0.69835166     -9.81373155
 C     13.61780733     -0.59887305     -9.87269509
 C     14.61247901     -0.65432605    -11.04706863
 C     14.01515841     -0.21049040    -12.39533345
 C     15.01113245      0.52756246    -13.30906956
 C     14.37994669      1.09593824    -14.59365257
 C     15.27677095      2.10050364    -15.34075002
 C     14.77108963      2.46487725    -16.74898234
 C     15.62266998      3.53024954    -17.46409968
 C     15.48548467      4.94429077    -16.86973651
 C     15.85406670      6.07396641    -17.84931817
 C     16.55967884      7.27192066    -17.18703642
 C     17.96714859      6.95146579    -16.65043828
 C     18.57691140      8.06946919    -15.78449502
 C     19.78558394      7.62072081    -14.94227440
 C     19.41322698      6.75752194    -13.72250474
 C     20.45689345      6.78938439    -12.59053960
 C     21.90047269      6.53394011    -13.06216150
 C     22.94421434      6.56638599    -11.93028225
 C     24.25007073      5.82001112    -12.26083279
 C     24.03737424      4.38791356    -12.78567257
 C     25.33816082      3.57860992    -12.94245869
 C     25.11545357      2.10050728    -13.31288288
 H     -0.36333333      0.00000000      1.02766186
 H     -0.36333333     -0.88998127     -0.51383093
 H     -0.36333333      0.88998127     -0.51383093
 H      1.88274777     -0.73962008     -0.72359249
 H      1.88274777     -1.00061930     -0.26341029
 H      2.01868355      0.19346085     -2.08537720
 H      1.65323818     -1.46867481     -1.56382050
 H      3.96168559     -1.34557384     -0.43058470
 H      4.11980702      0.31502520     -1.05161216
 H      4.03136760     -0.94831298     -3.35125109
 H      5.03022539     -2.16597640     -2.03049353
 H      5.96749088     -2.31628875     -1.37453808
 H      6.33178681     -0.78587647     -2.20724056
 H      6.61596553     -2.84669144     -3.94161612
 H      5.96099742     -2.37940075     -4.33144352
 H      6.39982870     -2.84381928     -5.50094042
 H      6.57556286     -3.94154846     -3.84389886
 H      8.11562124     -3.11164221     -5.56199084
 H      6.76597497     -2.29024253     -6.38176164
 H      6.59812331     -4.37809054     -7.48341642
 H      7.38687815     -5.27373885     -5.79485170
 H      8.42668925     -3.76116925     -7.85279363
 H      7.35497272     -3.79301876     -8.45266513
 H      9.70087385     -4.24608568     -7.04530405
 H      9.14001771     -3.28912011     -8.76508752
 H     10.22433452     -3.02094422     -9.43547267
 H     10.08845883     -5.06326007     -9.24333588
 H     11.26712232     -2.62634798     -8.22917089
 H     11.95363790     -3.61120903     -8.73919055
 H     12.26019513     -4.36982829     -7.90984757
 H     11.61914690     -3.09825326     -7.11432816
 H     13.68605829     -4.20897384     -9.22049002
 H     13.19169470     -5.04622985     -7.40848020
 H     13.94142633     -3.96596495     -6.37658420
 H     14.79829852     -3.57731283     -7.26150870
 H     14.52705777     -4.83373797     -5.15185814
 H     14.25748209     -3.56374304     -5.33731705
 H     15.00627423     -2.87595795     -4.96848404
 H     15.75990654     -4.48770757     -5.01916125
 H     13.94381634     -2.92171387     -3.14670838
 H     13.28801438     -4.05106304     -3.32993272
 H     13.38318460     -2.22852061     -2.43392345
 H     12.93234944     -2.45292132     -4.01196059
 H     13.43169740     -1.38040921     -4.43999854
 H     12.40153841     -1.10656031     -3.71859818
 H     11.91374442     -0.34744311     -4.44721673
 H     13.27104912     -1.49034054     -5.51205000
 H     12.69196640      0.87685298     -5.67894257
 H     11.76908559      0.69509581     -5.53509486
 H     10.82864145      0.44441562     -6.12560223
 H     12.11132827      0.35394178     -6.81672424
 H     12.94005322     -0.17559209     -7.37388207
 H     12.37796176      1.65375856     -7.94068612
 H     11.29263751      1.71845619     -8.65642268
 H     11.23340173     -0.05688199     -8.54270310
 H     13.76861319      0.33655218     -9.49839223
 H     13.44980176      1.56552889     -9.84042189
 H     12.93032544     -1.44471322     -9.86789377
 H     14.25213502     -0.64120299     -8.98729318
 H     14.12233870     -1.14400132    -11.88854389
 H     14.05843828     -0.89480079    -11.95443337
 H     14.56203585      0.66704722    -12.74022878
 H     13.23737851     -0.92067866    -12.67603088
 H     14.66149978      0.44090389    -14.33782964
 H     15.36668685      1.41374986    -12.78337672
 H     13.59339593      1.79475232    -14.30887761
 H     13.94563540      0.26981501    -15.15667488
 H     16.20566550      1.59719733    -15.60896201
 H     15.49434612      2.93108410    -14.66926128
 H     15.00781992      3.51195700    -16.93788116
 H     14.68550168      1.54698163    -17.33056839
 H     15.05393332      4.45959739    -17.49494087
 H     15.01811017      4.42946674    -17.58248826
 H     16.42522489      5.47416168    -17.02538075
 H     15.35060411      5.64928111    -17.69003880
 H     15.19899319      6.00207418    -18.71754062
 H     16.85348791      6.43085009    -17.60053858
 H     17.03573946      6.92508249    -16.26988345
 H     17.61808953      7.23138071    -17.44437533
 H     18.58168936      6.60920410    -17.48308261
 H     18.06074239      7.38365147    -15.65416736
 H     17.91722644      8.24286072    -14.93428851
 H     18.63807487      8.97535646    -16.38759309
 H     20.55668361      7.25193340    -15.61866271
 H     19.53899304      6.67092422    -14.46774371
 H     18.89389194      5.86760319    -14.07808278
 H     18.74631165      7.33647746    -13.08365073
 H     20.57077386      7.82124583    -12.25828488
 H     21.42183219      7.05645601    -13.02142937
 H     22.16310634      7.29959699    -13.79215677
 H     21.93789458      5.55271627    -13.53534157
 H     22.68173094      5.80098434    -11.19996535
 H     22.90669861      7.54779233    -11.45748827
 H     24.09866105      4.75928871    -12.06072513
 H     24.00996447      4.98321493    -12.91674523
 H     23.43414566      4.44107890    -13.69197755
 H     23.50122882      3.82024879    -12.02514328
 H     25.15644785      2.56507539    -12.58492807
 H     25.98819294      4.10639182    -13.64031577
 H     24.53249268      2.04010939    -14.23190882
 H     24.57679011      1.60127425    -12.50745873
 H     26.07944748      1.61394868    -13.46146442
152
Step 20000 E=        15.6625
 C      0.00000000      0.00000000      0.00000000
 C      1.54000000      0.00000000      0.00000000
 C      2.16637443     -0.88559318      1.09315131
 C      1.33926295     -2.13911448      1.43398994
 C      1.28841098     -3.18270386      0.30264769
 C      0.98099842     -4.61311464      0.78329571
 C     -0.27138791     -4.71931352      1.67315541
 C     -0.45411275     -6.09753277      2.33551734
 C     -1.92454853     -6.52844681      2.48956827
 C     -2.15854177     -7.57256673      3.59711545
 C     -3.63957373     -7.93490507      3.81357618
 C     -4.56059331     -6.71614166      4.00835475
 C     -6.01547571     -6.95285208      3.56238911
 C     -6.93158475     -5.72743825      3.73761804
 C     -6.66383767     -4.59573716      2.72808144
 C     -7.41148677     -4.75866764      1.39164046
 C     -6.99112811     -3.74506665      0.31112594
 C     -5.47479490     -3.70589050      0.04504544
 C     -4.97783799     -2.37636121     -0.55243737
 C     -3.44508572     -2.27143654     -0.65855652
 C     -2.69920907     -2.67321365      0.62746182
 C     -3.08582995     -1.83853536      1.86254742
 C     -2.88573892     -2.57193820      3.20183225
 C     -3.15731457     -1.69865247      4.44087168
 C     -2.89220892     -2.41153610      5.77994446
 C     -3.76797486     -3.65710417      6.01058318
 C     -3.31903794     -4.52706839      7.19937160
 C     -3.99669409     -5.90881636      7.25553819
 C     -3.26451389     -6.92981594      8.14608410
 C     -3.78174194     -8.37297819      7.99994081
 C     -5.31695764     -8.48696306      7.95846542
 C     -5.84433853     -9.45540659      6.88348332
 C     -7.37672101     -9.44739243      6.73070994
 C     -7.89155578    -10.27349279      5.53735192
 C     -9.38750399    -10.06996594      5.23351681
 C     -9.79514823    -10.46415511      3.80172036
 C     -9.08803063     -9.64975721      2.70247481
 C     -9.29810820    -10.20230175      1.28044741
 C     -8.78084613     -9.27471534      0.16526877
 C     -7.36517827     -8.72279300      0.41600019
 C     -6.83269570     -7.82609091     -0.71713160
 C     -5.42294542     -7.26222272     -0.45972764
 C     -4.29672169     -8.05019493     -1.15422018
 C     -4.28788040     -9.55403463     -0.82257580
 C     -4.02827688     -9.86634753      0.66290953
 C     -4.14002585    -11.36077089      1.01760799
 C     -4.42747191    -11.63145559      2.50613228
 C     -3.17052041    -11.93943898      3.34088922
 C     -3.47137005    -12.40556950      4.77748653
 C     -2.21464147    -12.63862931      5.63650713
 H     -0.36333333      0.00000000      1.02766186
 H     -0.36333333     -0.88998127     -0.51383093
 H     -0.36333333      0.88998127     -0.51383093
 H      1.88274777     -0.28806366      0.99380244
 H      1.88274777      0.24083356      1.00629179
 H      1.40217574     -1.57196024      1.45784382
 H      2.20149400     -1.91099883      0.72517051
 H      0.97142121     -2.57060196      0.50307049
 H      1.67317970     -2.95486888      0.79278454
 H      2.30829070     -3.49545319      0.07874323
 H      0.48052486     -3.88214456      0.51759585
 H      0.57553536     -4.55555387      1.79343752
 H      1.75555501     -4.91113609      1.48993940
 H     -0.52687979     -5.77345178      1.78093501
 H     -0.06669416     -5.43551441      2.46892972
 H     -1.40725328     -6.10001419      2.86430555
 H     -1.45400218     -6.46151344      2.09921416
 H     -2.37760478     -6.56158461      1.49873936
 H     -2.43766501     -5.78454355      3.09901015
 H     -2.87647602     -7.16328206      4.30785906
 H     -1.56471392     -8.45679117      3.36556496
 H     -4.13227324     -7.09016755      4.29499670
 H     -4.08545957     -7.18131630      4.46272160
 H     -4.48786475     -6.08638530      3.12166570
 H     -5.47609659     -7.05265542      4.49488557
 H     -6.67610703     -6.44186000      4.26278425
 H     -6.01142464     -7.21374306      2.50407938
 H     -6.30927843     -4.83257805      3.74536763
 H     -7.05936760     -5.25309256      2.76459815
 H     -6.55910286     -5.03792022      1.73732175
 H     -5.63007618     -4.27025814      2.84427339
 H     -8.48126563     -4.78731348      1.59864916
 H     -6.67330825     -4.86077932      0.59617476
 H     -5.97301155     -3.41932787      0.52427596
 H     -7.18171575     -2.74107273      0.69029946
 H     -5.30956965     -3.24635296     -0.92944205
 H     -5.11766482     -2.69570521      0.24525484
 H     -4.98803371     -1.62199613      0.23428328
 H     -5.66208293     -2.08105503     -1.34786376
 H     -3.05300009     -1.98231555      0.31652189
 H     -3.00956044     -3.17792235     -0.23819812
 H     -2.25112149     -1.77760768      1.05781919
 H     -3.43800069     -2.88077562      1.40154513
 H     -3.46976674     -2.51452805      2.62656734
 H     -2.30786144     -1.96089779      2.61613381
 H     -2.34545671     -1.90940832      3.87803437
 H     -3.59016557     -3.40254146      3.24634425
 H     -3.66671834     -2.30977662      5.18594555
 H     -2.73029874     -2.19657467      5.31140655
 H     -1.84767074     -2.72227394      5.80189896
 H     -3.00828060     -3.48434492      5.62596849
 H     -3.57837161     -4.36378553      5.20265246
 H     -4.08069317     -3.66765999      7.05470762
 H     -3.34790091     -3.91596386      8.10149032
 H     -2.29624712     -4.85635641      7.01615498
 H     -3.22522596     -6.67301588      7.16100766
 H     -5.07401461     -5.75953460      7.32761762
 H     -3.21752429     -6.52968869      9.15889709
 H     -2.25369978     -7.05927278      7.75930798
 H     -4.57811566     -8.52703859      8.72805777
 H     -4.73307656     -8.45106102      8.52621594
 H     -5.61333234     -8.75713372      6.94492221
 H     -5.71085330     -8.16297908      8.92178292
 H     -6.84861776     -9.76936502      7.16800631
 H     -5.50008199     -9.10702068      5.90972016
 H     -7.68943383     -8.43749838      6.46533340
 H     -7.81806339     -9.72464784      7.68802198
 H     -7.56559305    -11.30528829      5.66867724
 H     -7.45404993     -9.86753548      4.62527336
 H     -9.49148542     -9.81538783      4.17877615
 H     -9.95654547    -10.32404179      6.12779711
 H     -9.83671209     -9.55908766      3.19572914
 H     -9.93244669     -9.55198795      3.22103094
 H     -8.48217118    -10.33221728      2.10641896
 H     -9.60188490     -9.82996289      1.75823983
 H    -10.36741822    -10.20719584      1.06913692
 H     -8.39742110    -10.00442906      0.69931993
 H     -8.29905528     -8.41483709      0.63065783
 H     -7.71712998     -9.46711812      0.02530756
 H     -7.04694442     -8.17871783     -0.47327447
 H     -7.31065976     -7.71702395     -0.00060076
 H     -7.51328210     -6.98295520     -0.83555595
 H     -5.78234649     -8.06740524     -0.88033061
 H     -4.75056149     -8.09717328     -0.26260481
 H     -4.79625093     -7.50066201     -1.31908828
 H     -4.48063205     -8.03607803     -2.22850026
 H     -4.60757501     -9.09167004     -1.23668111
 H     -5.24343637     -9.97854417     -1.13047908
 H     -4.55495411     -9.67507555      0.22724358
 H     -4.80931028     -9.38937326      1.25500949
 H     -3.27385571    -10.65089973      0.72144622
 H     -3.41293560    -11.91025619      0.41969021
 H     -5.07478862    -11.51622307      1.55626668
 H     -3.69578308    -12.35232080      2.87094020
 H     -3.49867252    -11.50667070      3.06278336
 H     -2.49563764    -11.08629546      3.27175615
 H     -3.43147421    -12.68646165      4.09052930
 H     -2.69015488    -13.10177617      5.08260801
 H     -4.03386910    -11.61997780      5.28200661
 H     -1.61885802    -11.72627073      5.66378163
 H     -1.62347066    -13.44581933      5.20400124
 H     -2.51209303    -12.90875579      6.64974662
152
Step 30000 E=         9.8662
 C      0.00000000      0.00000000      0.00000000
 C      1.54000000      0.00000000      0.00000000
 C      2.16637443      0.25013178      1.38444544
 C      3.70633588      0.26085808      1.38252493
 C      4.33042074      0.82293441      2.67333409
 C      4.09944292     -0.05737657      3.91563108
 C      4.50698107     -1.53009563      3.72429048
 C      3.86995399     -2.49369027      4.74276084
 C      4.28163650     -3.96567933      4.55470310
 C      3.80696922     -4.89811206      5.68468547
 C      3.93646009     -6.39701755      5.35587784
 C      3.11171277     -6.84389360      4.13452873
 C      2.93632319     -8.36968813      4.02143781
 C      2.11056839     -8.81649702      2.80074504
 C      2.70805672     -8.38521947      1.44848495
 C      4.00237461     -9.12885256      1.06986766
 C      4.69575574     -8.57774470     -0.18993499
 C      4.97434831     -7.06397429     -0.14008196
 C      4.85823809     -6.36042516     -1.50504974
 C      5.15674390     -4.85034093     -1.45879059
 C      4.48250788     -4.11420033     -0.28614281
 C      2.94839855     -4.24666690     -0.26245379
 C      2.27392225     -3.50804727      0.90849571
 C      0.74748358     -3.36521529      0.76294837
 C      0.00613832     -3.17297397      2.09900618
 C      0.18680571     -4.33870222      3.08897434
 C     -0.51441032     -4.12475203      4.44327172
 C     -0.02786845     -5.07065937      5.55688580
 C     -0.45828079     -4.64480199      6.97286274
 C      0.01325589     -5.60025037      8.08478520
 C     -0.32063409     -7.08047072      7.82198258
 C      0.88205893     -8.03031378      7.97340135
 C      0.77423530     -9.31634850      7.13311047
 C      2.08193787    -10.12607852      7.05661679
 C      1.94491060    -11.46856224      6.31461881
 C      3.29031798    -12.13371144      5.96957455
 C      4.22490198    -11.25274314      5.11984072
 C      5.44242899    -12.00186422      4.54708808
 C      6.37169513    -11.12324816      3.68912640
 C      6.74617136     -9.78109904      4.34487274
 C      7.37467189     -8.76368572      3.37458555
 C      6.67238891     -7.39319142      3.36258632
 C      7.44006209     -6.30270950      2.59243888
 C      8.50072861     -5.56989990      3.43480258
 C      7.91931345     -4.51484762      4.39418838
 C      8.98500736     -3.66504835      5.11094337
 C      8.41836078     -2.42872850      5.83345626
 C      7.76141323     -1.40050898      4.89389010
 C      7.21033525     -0.15603399      5.61444200
 C      8.29518288      0.84388760      6.05587427
 H     -0.36333333      0.00000000      1.02766186
 H     -0.36333333     -0.88998127     -0.51383093
 H     -0.36333333      0.88998127     -0.51383093
 H      1.88274777      0.56488255      0.86690927
 H      1.88274777      0.91956468      0.47436776
 H      3.21815664     -0.03264095      1.34092803
 H      2.89501650      1.05534364      1.29055927
 H      4.04443958      1.04923990      2.05501285
 H      4.05025535      0.27903278      2.41668598
 H      3.87614181      0.31403600      3.52348293
 H      4.73745559     -0.00918148      3.24779539
 H      3.79511016     -1.04914422      3.58114866
 H      3.02505669     -0.15753941      4.06977919
 H      4.33984616     -2.05681982      4.66382630
 H      3.68494698     -2.16012036      4.06403861
 H      3.76554628     -3.47084779      4.27120786
 H      4.45636724     -3.41236743      4.75862806
 H      5.36533122     -4.03338023      4.65021407
 H      3.98479120     -4.27942803      3.55393108
 H      3.06694549     -5.58504944      5.27409819
 H      4.22974400     -4.54127268      6.62384847
 H      3.07808318     -6.69079007      4.75173649
 H      2.99475790     -6.73577091      4.92397144
 H      3.44538016     -6.27286050      3.26810662
 H      2.36712586     -7.56607982      4.46939796
 H      1.92441597     -8.57334920      3.67120082
 H      3.92467060     -8.82412566      3.95247467
 H      1.97104606     -7.95518874      2.14745984
 H      2.78953831     -8.95316344      1.95906687
 H      3.79120948     -8.32656717      1.55544291
 H      2.77753598     -7.29751060      1.43575507
 H      3.78364085    -10.19566481      1.02331487
 H      4.80594556     -8.39720679      0.98579513
 H      4.41394360     -7.53124637     -0.30622410
 H      3.99976926     -8.65399227     -1.02533258
 H      5.60077308     -6.80248788     -0.99291071
 H      4.31718711     -6.57075702     -0.85630531
 H      3.80197690     -6.28648568     -1.76378755
 H      5.37283703     -6.96857745     -2.24898435
 H      4.27818773     -4.33919372     -1.06513136
 H      5.40975260     -4.58223955     -0.43301856
 H      3.69995513     -3.47149524     -0.68943100
 H      3.85583148     -4.82635113      0.25071650
 H      2.61995491     -4.24170317      0.77687298
 H      2.52274770     -3.26478767     -0.05548878
 H      1.54680963     -2.80719529      0.49835702
 H      2.56898054     -3.99636729      1.83724980
 H      0.27201100     -3.94473872      1.55426273
 H      0.34461758     -3.00901497      1.71106245
 H      0.39055067     -2.27236558      2.57778763
 H      0.61311763     -3.60732950      2.89336843
 H      1.25065832     -4.44751648      3.29987024
 H     -0.79768147     -4.64041777      3.44653933
 H     -1.58077066     -3.99282838      4.26004572
 H     -0.10972929     -3.22149951      4.89985484
 H      0.35053542     -4.46477490      6.38018071
 H     -0.20637671     -6.09722501      5.23688924
 H     -1.54727762     -4.61007453      7.00416618
 H     -0.05727697     -3.65029098      7.16842292
 H     -0.80726456     -6.27561622      8.32712210
 H     -0.69093239     -6.43005969      8.14507915
 H      0.58332632     -7.57879140      7.47179397
 H     -1.40486792     -7.19243907      7.82168229
 H      0.53730218     -9.04995978      7.80145713
 H      1.65311877     -7.72227439      7.26722965
 H      0.69044620     -9.03403867      6.08364368
 H     -0.12525952     -9.85090378      7.43849506
 H      2.37388587    -10.40216606      8.06985025
 H      2.85206269     -9.49261839      6.61646226
 H      2.79809693    -11.57887983      5.64528845
 H      1.17680538    -12.05924917      6.81382149
 H      3.56550476    -11.84449536      4.95531310
 H      3.51742327    -11.92551864      4.92402257
 H      5.23972635    -11.36097598      5.50261630
 H      4.78117442    -11.89880570      4.44067643
 H      5.07982187    -12.81849198      3.92280034
 H      6.31664497    -11.35768832      4.64134213
 H      6.01031776    -10.09590180      3.73457796
 H      7.08243444    -10.62810723      4.35077970