302
Step 1 E=        -5.0531
 C      0.00000000      0.00000000      0.00000000
 C      1.54000000      0.00000000      0.00000000
 C      2.16637443      1.40686000      0.00000000
 C      3.70637443      1.40686000      0.00000000
 C      4.33274886      2.81372001      0.00000000
 C      5.87274886      2.81372001      0.00000000
 C      6.49912329      4.22058001      0.00000000
 C      8.03912329      4.22058001      0.00000000
 C      8.66549772      5.62744002      0.00000000
 C     10.20549772      5.62744002      0.00000000
 C     10.83187215      7.03430002      0.00000000
 C     12.37187215      7.03430002      0.00000000
 C     12.99824658      8.44116003      0.00000000
 C     14.53824658      8.44116003      0.00000000
 C     15.16462101      9.84802003      0.00000000
 C     16.70462101      9.84802003      0.00000000
 C     17.33099544     11.25488004      0.00000000
 C     18.87099544     11.25488004      0.00000000
 C     19.49736987     12.66174004      0.00000000
 C     21.03736987     12.66174004      0.00000000
 C     21.66374430     14.06860005      0.00000000
 C     23.20374430     14.06860005      0.00000000
 C     23.83011873     15.47546005      0.00000000
 C     25.37011873     15.47546005      0.00000000
 C     25.99649316     16.88232006      0.00000000
 C     27.53649316     16.88232006      0.00000000
 C     28.16286759     18.28918006      0.00000000
 C     29.70286759     18.28918006      0.00000000
 C     30.32924202     19.69604007      0.00000000
 C     31.86924202     19.69604007      0.00000000
 C     32.49561646     21.10290007      0.00000000
 C     34.03561646     21.10290007      0.00000000
 C     34.66199089     22.50976008      0.00000000
 C     36.20199089     22.50976008      0.00000000
 C     36.82836532     23.91662008      0.00000000
 C     38.36836532     23.91662008      0.00000000
 C     38.99473975     25.32348009      0.00000000
 C     40.53473975     25.32348009      0.00000000
 C     41.16111418     26.73034009      0.00000000
 C     42.70111418     26.73034009      0.00000000
 C     43.32748861     28.13720010      0.00000000
 C     44.86748861     28.13720010      0.00000000
 C     45.49386304     29.54406010      0.00000000
 C     47.03386304     29.54406010      0.00000000
 C     47.66023747     30.95092010      0.00000000
 C     49.20023747     30.95092010      0.00000000
 C     49.82661190     32.35778011      0.00000000
 C     51.36661190     32.35778011      0.00000000
 C     51.99298633     33.76464011      0.00000000
 C     53.53298633     33.76464011      0.00000000
 C     54.15936076     35.17150012      0.00000000
 C     55.69936076     35.17150012      0.00000000
 C     56.32573519     36.57836012      0.00000000
 C     57.86573519     36.57836012      0.00000000
 C     58.49210962     37.98522013      0.00000000
 C     60.03210962     37.98522013      0.00000000
 C     60.65848405     39.39208013      0.00000000
 C     62.19848405     39.39208013      0.00000000
 C     62.82485848     40.79894014      0.00000000
 C     64.36485848     40.79894014      0.00000000
 C     64.99123291     42.20580014      0.00000000
 C     66.53123291     42.20580014      0.00000000
 C     67.15760734     43.61266015      0.00000000
 C     68.69760734     43.61266015      0.00000000
 C     69.32398177     45.01952015      0.00000000
 C     70.86398177     45.01952015      0.00000000
 C     71.49035620     46.42638016      0.00000000
 C     73.03035620     46.42638016      0.00000000
 C     73.65673063     47.83324016      0.00000000
 C     75.19673063     47.83324016      0.00000000
 C     75.82310506     49.24010017      0.00000000
 C     77.36310506     49.24010017      0.00000000
 C     77.98947949     50.64696017      0.00000000
 C     79.52947949     50.64696017      0.00000000
 C     80.15585392     52.05382018      0.00000000
 C     81.69585392     52.05382018      0.00000000
 C     82.32222835     53.46068018      0.00000000
 C     83.86222835     53.46068018      0.00000000
 C     84.48860278     54.86754019      0.00000000
 C     86.02860278     54.86754019      0.00000000
 C     86.65497721     56.27440019      0.00000000
 C     88.19497721     56.27440019      0.00000000
 C     88.82135164     57.68126020      0.00000000
 C     90.36135164     57.68126020      0.00000000
 C     90.98772607     59.08812020      0.00000000
 C     92.52772607     59.08812020      0.00000000
 C     93.15410050     60.49498021      0.00000000
 C     94.69410050     60.49498021      0.00000000
 C     95.32047493     61.90184021      0.00000000
 C     96.86047493     61.90184021      0.00000000
 C     97.48684937     63.30870021      0.00000000
 C     99.02684937     63.30870021      0.00000000
 C     99.65322380     64.71556022      0.00000000
 C    101.19322380     64.71556022      0.00000000
 C    101.81959823     66.12242022      0.00000000
 C    103.35959823     66.12242022      0.00000000
 C    103.98597266     67.52928023      0.00000000
 C    105.52597266     67.52928023      0.00000000
 C    106.15234709     68.93614023      0.00000000
 C    107.69234709     68.93614023      0.00000000
 H     -0.36333333      0.00000000      1.02766186
 H     -0.36333333     -0.88998127     -0.51383093
 H     -0.36333333      0.88998127     -0.51383093
 H      1.88274777     -0.52778528     -0.88998127
 H      1.88274777     -0.52778528      0.88998127
 H      1.82362666      1.93464528      0.88998127
 H      1.82362666      1.93464528     -0.88998127
 H      4.04912220      0.87907473     -0.88998127
 H      4.04912220      0.87907473      0.88998127
 H      3.99000109      3.34150529      0.88998127
 H      3.99000109      3.34150529     -0.88998127
 H      6.21549663      2.28593473     -0.88998127
 H      6.21549663      2.28593473      0.88998127
 H      6.15637552      4.74836529      0.88998127
 H      6.15637552      4.74836529     -0.88998127
 H      8.38187106      3.69279473     -0.88998127
 H      8.38187106      3.69279473      0.88998127
 H      8.32274995      6.15522530      0.88998127
 H      8.32274995      6.15522530     -0.88998127
 H     10.54824549      5.09965474     -0.88998127
 H     10.54824549      5.09965474      0.88998127
 H     10.48912438      7.56208530      0.88998127
 H     10.48912438      7.56208530     -0.88998127
 H     12.71461992      6.50651474     -0.88998127
 H     12.71461992      6.50651474      0.88998127
 H     12.65549881      8.96894531      0.88998127
 H     12.65549881      8.96894531     -0.88998127
 H     14.88099435      7.91337475     -0.88998127
 H     14.88099435      7.91337475      0.88998127
 H     14.82187324     10.37580531      0.88998127
 H     14.82187324     10.37580531     -0.88998127
 H     17.04736878      9.32023475     -0.88998127
 H     17.04736878      9.32023475      0.88998127
 H     16.98824767     11.78266532      0.88998127
 H     16.98824767     11.78266532     -0.88998127
 H     19.21374321     10.72709476     -0.88998127
 H     19.21374321     10.72709476      0.88998127
 H     19.15462210     13.18952532      0.88998127
 H     19.15462210     13.18952532     -0.88998127
 H     21.38011764     12.13395476     -0.88998127
 H     21.38011764     12.13395476      0.88998127
 H     21.32099654     14.59638533      0.88998127
 H     21.32099654     14.59638533     -0.88998127
 H     23.54649207     13.54081477     -0.88998127
 H     23.54649207     13.54081477      0.88998127
 H     23.48737097     16.00324533      0.88998127
 H     23.48737097     16.00324533     -0.88998127
 H     25.71286650     14.94767477     -0.88998127
 H     25.71286650     14.94767477      0.88998127
 H     25.65374540     17.41010534      0.88998127
 H     25.65374540     17.41010534     -0.88998127
 H     27.87924093     16.35453478     -0.88998127
 H     27.87924093     16.35453478      0.88998127
 H     27.82011983     18.81696534      0.88998127
 H     27.82011983     18.81696534     -0.88998127
 H     30.04561536     17.76139478     -0.88998127
 H     30.04561536     17.76139478      0.88998127
 H     29.98649426     20.22382535      0.88998127
 H     29.98649426     20.22382535     -0.88998127
 H     32.21198979     19.16825479     -0.88998127
 H     32.21198979     19.16825479      0.88998127
 H     32.15286869     21.63068535      0.88998127
 H     32.15286869     21.63068535     -0.88998127
 H     34.37836422     20.57511479     -0.88998127
 H     34.37836422     20.57511479      0.88998127
 H     34.31924312     23.03754536      0.88998127
 H     34.31924312     23.03754536     -0.88998127
 H     36.54473865     21.98197480     -0.88998127
 H     36.54473865     21.98197480      0.88998127
 H     36.48561755     24.44440536      0.88998127
 H     36.48561755     24.44440536     -0.88998127
 H     38.71111308     23.38883480     -0.88998127
 H     38.71111308     23.38883480      0.88998127
 H     38.65199198     25.85126537      0.88998127
 H     38.65199198     25.85126537     -0.88998127
 H     40.87748751     24.79569481     -0.88998127
 H     40.87748751     24.79569481      0.88998127
 H     40.81836641     27.25812537      0.88998127
 H     40.81836641     27.25812537     -0.88998127
 H     43.04386194     26.20255481     -0.88998127
 H     43.04386194     26.20255481      0.88998127
 H     42.98474084     28.66498537      0.88998127
 H     42.98474084     28.66498537     -0.88998127
 H     45.21023637     27.60941482     -0.88998127
 H     45.21023637     27.60941482      0.88998127
 H     45.15111527     30.07184538      0.88998127
 H     45.15111527     30.07184538     -0.88998127
 H     47.37661081     29.01627482     -0.88998127
 H     47.37661081     29.01627482      0.88998127
 H     47.31748970     31.47870538      0.88998127
 H     47.31748970     31.47870538     -0.88998127
 H     49.54298524     30.42313483     -0.88998127
 H     49.54298524     30.42313483      0.88998127
 H     49.48386413     32.88556539      0.88998127
 H     49.48386413     32.88556539     -0.88998127
 H     51.70935967     31.82999483     -0.88998127
 H     51.70935967     31.82999483      0.88998127
 H     51.65023856     34.29242539      0.88998127
 H     51.65023856     34.29242539     -0.88998127
 H     53.87573410     33.23685484     -0.88998127
 H     53.87573410     33.23685484      0.88998127
 H     53.81661299     35.69928540      0.88998127
 H     53.81661299     35.69928540     -0.88998127
 H     56.04210853     34.64371484     -0.88998127
 H     56.04210853     34.64371484      0.88998127
 H     55.98298742     37.10614540      0.88998127
 H     55.98298742     37.10614540     -0.88998127
 H     58.20848296     36.05057484     -0.88998127
 H     58.20848296     36.05057484      0.88998127
 H     58.14936185     38.51300541      0.88998127
 H     58.14936185     38.51300541     -0.88998127
 H     60.37485739     37.45743485     -0.88998127
 H     60.37485739     37.45743485      0.88998127
 H     60.31573628     39.91986541      0.88998127
 H     60.31573628     39.91986541     -0.88998127
 H     62.54123182     38.86429485     -0.88998127
 H     62.54123182     38.86429485      0.88998127
 H     62.48211071     41.32672542      0.88998127
 H     62.48211071     41.32672542     -0.88998127
 H     64.70760625     40.27115486     -0.88998127
 H     64.70760625     40.27115486      0.88998127
 H     64.64848514     42.73358542      0.88998127
 H     64.64848514     42.73358542     -0.88998127
 H     66.87398068     41.67801486     -0.88998127
 H     66.87398068     41.67801486      0.88998127
 H     66.81485957     44.14044543      0.88998127
 H     66.81485957     44.14044543     -0.88998127
 H     69.04035511     43.08487487     -0.88998127
 H     69.04035511     43.08487487      0.88998127
 H     68.98123400     45.54730543      0.88998127
 H     68.98123400     45.54730543     -0.88998127
 H     71.20672954     44.49173487     -0.88998127
 H     71.20672954     44.49173487      0.88998127
 H     71.14760843     46.95416544      0.88998127
 H     71.14760843     46.95416544     -0.88998127
 H     73.37310397     45.89859488     -0.88998127
 H     73.37310397     45.89859488      0.88998127
 H     73.31398286     48.36102544      0.88998127
 H     73.31398286     48.36102544     -0.88998127
 H     75.53947840     47.30545488     -0.88998127
 H     75.53947840     47.30545488      0.88998127
 H     75.48035729     49.76788545      0.88998127
 H     75.48035729     49.76788545     -0.88998127
 H     77.70585283     48.71231489     -0.88998127
 H     77.70585283     48.71231489      0.88998127
 H     77.64673172     51.17474545      0.88998127
 H     77.64673172     51.17474545     -0.88998127
 H     79.87222726     50.11917489     -0.88998127
 H     79.87222726     50.11917489      0.88998127
 H     79.81310615     52.58160546      0.88998127
 H     79.81310615     52.58160546     -0.88998127
 H     82.03860169     51.52603490     -0.88998127
 H     82.03860169     51.52603490      0.88998127
 H     81.97948058     53.98846546      0.88998127
 H     81.97948058     53.98846546     -0.88998127
 H     84.20497612     52.93289490     -0.88998127
 H     84.20497612     52.93289490      0.88998127
 H     84.14585502     55.39532547      0.88998127
 H     84.14585502     55.39532547     -0.88998127
 H     86.37135055     54.33975491     -0.88998127
 H     86.37135055     54.33975491      0.88998127
 H     86.31222945     56.80218547      0.88998127
 H     86.31222945     56.80218547     -0.88998127
 H     88.53772498     55.74661491     -0.88998127
 H     88.53772498     55.74661491      0.88998127
 H     88.47860388     58.20904547      0.88998127
 H     88.47860388     58.20904547     -0.88998127
 H     90.70409941     57.15347492     -0.88998127
 H     90.70409941     57.15347492      0.88998127
 H     90.64497831     59.61590548      0.88998127
 H     90.64497831     59.61590548     -0.88998127
 H     92.87047384     58.56033492     -0.88998127
 H     92.87047384     58.56033492      0.88998127
 H     92.81135274     61.02276548      0.88998127
 H     92.81135274     61.02276548     -0.88998127
 H     95.03684827     59.96719493     -0.88998127
 H     95.03684827     59.96719493      0.88998127
 H     94.97772717     62.42962549      0.88998127
 H     94.97772717     62.42962549     -0.88998127
 H     97.20322270     61.37405493     -0.88998127
 H     97.20322270     61.37405493      0.88998127
 H     97.14410160     63.83648549      0.88998127
 H     97.14410160     63.83648549     -0.88998127
 H     99.36959713     62.78091494     -0.88998127
 H     99.36959713     62.78091494      0.88998127
 H     99.31047603     65.24334550      0.88998127
 H     99.31047603     65.24334550     -0.88998127
 H    101.53597156     64.18777494     -0.88998127
 H    101.53597156     64.18777494      0.88998127
 H    101.47685046     66.65020550      0.88998127
 H    101.47685046     66.65020550     -0.88998127
 H    103.70234599     65.59463494     -0.88998127
 H    103.70234599     65.59463494      0.88998127
 H    103.64322489     68.05706551      0.88998127
 H    103.64322489     68.05706551     -0.88998127
 H    105.86872042     67.00149495     -0.88998127
 H    105.86872042     67.00149495      0.88998127
 H    105.80959932     69.46392551      0.88998127
 H    105.80959932     69.46392551     -0.88998127
 H    108.05568042     68.93614023     -1.02766186
 H    108.05568042     68.04615896      0.51383093
 H    108.05568042     69.82612151      0.51383093
302
Step 10000 E=        40.3305
 C      0.00000000      0.00000000      0.00000000
 C      1.54000000      0.00000000      0.00000000
 C      2.16637443     -1.40576195     -0.05557359
 C      2.33634430     -2.07071506      1.32302991
 C      3.26689669     -1.30148068      2.27903760
 C      3.39792961     -1.94001276      3.67428208
 C      4.34015766     -1.17900741      4.62542726
 C      4.12670266     -1.50837813      6.11457195
 C      2.77371778     -1.03083609      6.67402303
 C      2.75746566      0.45058536      7.09441140
 C      1.35897974      0.98324044      7.45788862
 C      0.44062155      1.21204988      6.24303699
 C     -1.03720032      1.44281593      6.60962880
 C     -2.00120434      1.35174291      5.41213059
 C     -1.97076158     -0.00561909      4.68532825
 C     -3.05442573     -0.16059370      3.60215933
 C     -3.29069504     -1.61553508      3.15615219
 C     -2.12611670     -2.22065426      2.35043011
 C     -2.42506625     -3.61456804      1.76799251
 C     -1.17994459     -4.35572012      1.24648927
 C     -1.44456556     -5.81836541      0.84369344
 C     -2.46556756     -5.97874192     -0.29798702
 C     -3.48812953     -7.10742701     -0.06987085
 C     -4.41089009     -7.36955314     -1.27461267
 C     -5.21216610     -8.68099378     -1.17622466
 C     -6.08216461     -8.97767135     -2.41181562
 C     -6.82998844    -10.32215703     -2.34312968
 C     -8.19354965    -10.31774957     -3.05886805
 C     -8.95434562    -11.65343513     -2.96541454
 C     -8.93029209    -12.29126614     -1.56391783
 C     -9.56200537    -13.69443212     -1.50339054
 C     -9.62932580    -14.29039636     -0.08497785
 C    -10.53500110    -15.53051283      0.03105405
 C    -10.60450128    -16.12483037      1.45005242
 C    -11.78013791    -17.09593662      1.66553131
 C    -11.83433784    -17.71055254      3.07652728
 C    -13.16684188    -18.40942763      3.40456170
 C    -13.11292406    -19.30496299      4.65624429
 C    -14.35595548    -20.19446019      4.84404108
 C    -15.68463051    -19.41634304      4.87154338
 C    -15.75281922    -18.33166156      5.96260542
 C    -17.08954138    -17.56808071      6.00405609
 C    -16.98219500    -16.14879815      6.59203040
 C    -18.31961427    -15.38664110      6.63704517
 C    -18.17570172    -13.88744999      6.95847195
 C    -19.51541701    -13.13190023      7.03533232
 C    -19.36708970    -11.61363562      7.24621515
 C    -20.69843096    -10.88419254      7.50514223
 C    -20.57139792     -9.35053869      7.56318086
 C    -21.92177253     -8.61048324      7.58333880
 C    -21.81242190     -7.11734081      7.94412698
 C    -23.16008957     -6.37209770      7.94199505
 C    -24.02579924     -6.63968503      9.18720338
 C    -25.34259243     -5.84174031      9.21786165
 C    -26.22289539     -6.13281072     10.44747326
 C    -26.62851793     -7.61142864     10.59155451
 C    -26.94760959     -8.03539785     12.03724833
 C    -27.43760468     -9.48932199     12.16994877
 C    -27.67088794     -9.94149575     13.62346788
 C    -28.53320035    -11.21075341     13.75386078
 C    -28.89763605    -11.57403317     15.20534775
 C    -29.88526837    -12.74927194     15.32780679
 C    -31.36047584    -12.31955684     15.43128543
 C    -32.30847562    -13.44098373     15.89528775
 C    -33.73529176    -12.96078635     16.21964278
 C    -34.69410029    -14.08829356     16.64509983
 C    -35.94833542    -13.59587626     17.39076695
 C    -36.75109578    -14.71788513     18.07507091
 C    -37.59011444    -14.24453629     19.27656521
 C    -36.77224827    -13.53240181     20.36998160
 C    -37.44792881    -13.52662216     21.75382494
 C    -37.67034532    -14.92980288     22.34814367
 C    -38.34378402    -14.92391610     23.73307893
 C    -38.40369783    -16.30765687     24.40633359
 C    -39.42980894    -16.40356424     25.55066648
 C    -38.92438093    -17.17829648     26.78189858
 C    -40.04571447    -17.80460012     27.63157784
 C    -39.54534253    -18.80635815     28.68879530
 C    -40.66816771    -19.60813965     29.37290789
 C    -40.19025871    -20.47209082     30.55476718
 C    -41.32029802    -21.23648932     31.26912430
 C    -42.41324244    -20.32818189     31.86246242
 C    -43.51574006    -21.08906485     32.62217032
 C    -44.83241296    -20.30370205     32.76769606
 C    -45.94509360    -21.07657210     33.49996219
 C    -47.33350858    -20.41735512     33.40333504
 C    -48.39552003    -21.05692702     34.31694298
 C    -49.56196376    -20.11723294     34.67469159
 C    -50.76989847    -20.83156924     35.30889770
 C    -51.96184855    -19.90275445     35.60581199
 C    -53.23987647    -20.64348525     36.04119976
 C    -54.36439706    -19.71481603     36.53579750
 C    -55.53132978    -20.45255455     37.21815365
 C    -56.73418263    -19.55013938     37.55040639
 C    -57.84142464    -20.25397406     38.35677596
 C    -59.05534459    -19.35875502     38.66755115
 C    -60.29539611    -20.13160108     39.15394728
 C    -60.02008140    -21.07556085     40.33916530
 C    -61.27927151    -21.76533187     40.89617176
 C    -61.00187041    -22.72130187     42.07123346
 H     -0.36333333      0.00000000      1.02766186
 H     -0.36333333     -0.88998127     -0.51383093
 H     -0.36333333      0.88998127     -0.51383093
 H      1.88274777     -0.62255158     -0.82647051
 H      1.88274777     -0.94558480     -0.42011112
 H      1.82362666     -1.89797937     -0.96570873
 H      1.55205866     -2.07861686      0.54274271
 H      1.35385687     -2.15139740      1.78812002
 H      2.60361655     -1.29916890      2.04509782
 H      2.87983600     -1.40667481      3.29255534
 H      3.75019989     -2.02114869      2.93979169
 H      3.78962390     -2.95001571      3.55357738
 H      3.50341143     -1.14113421      4.40828933
 H      3.95883529     -0.16513809      4.74692734
 H      5.33012174     -1.14280030      4.17071839
 H      4.28735083     -2.57720446      6.25564797
 H      3.12214118     -1.91379991      6.23535862
 H      1.97841098     -1.50670287      6.10031762
 H      2.45748144     -0.15597687      6.10594212
 H      3.00096059      1.05710011      6.22208687
 H      3.51692465      0.59728382      7.86239682
 H      0.68507357      0.77127581      6.62781545
 H      0.65751141      0.65623630      6.69035330
 H      0.32076427      0.26304669      5.72042129
 H     -0.43082641      1.77712425      6.57374747
 H     -1.09746700      2.31933158      7.25475533
 H     -1.39670063      0.56776832      7.15106321
 H     -1.59453637      0.63521463      4.69847213
 H     -1.70864375      2.10312540      4.67869166
 H     -2.23820088     -0.78345305      5.40055587
 H     -0.95718641     -0.17788490      4.32326490
 H     -2.91470268      0.62756302      2.86230363
 H     -4.03006595     -0.04659616      4.07463232
 H     -3.59176838     -2.19663158      4.02780677
 H     -2.33709231     -2.14259960      3.18689017
 H     -1.22990285     -2.19340485      2.97023507
 H     -1.97127109     -1.61027995      1.46073014
 H     -3.29068347     -3.53291096      1.11061974
 H     -2.65753765     -4.28805966      2.59289619
 H     -0.47939921     -4.47277762      2.07331073
 H     -1.44317726     -4.85338277      0.31314023
 H     -2.51792563     -6.00007817      0.89827031
 H     -1.82024636     -6.35174082      1.71689137
 H     -2.08991020     -5.44536051     -1.17119136
 H     -3.40873949     -5.53502783      0.02083034
 H     -4.03307306     -6.89545505      0.85002286
 H     -2.94435645     -8.04592331      0.03799726
 H     -3.79031881     -7.63697963     -2.12987541
 H     -4.95658012     -6.45194532     -1.49442683
 H     -5.82619581     -8.64081277     -0.27652860
 H     -4.50698624     -9.50847808     -1.09817918
 H     -5.43032588     -9.03883589     -3.28328861
 H     -6.96757558     -9.52277308     -2.08468947
 H     -7.47492697    -10.31113422     -1.46447571
 H     -6.09338195    -11.11935289     -2.24318144
 H     -8.02937508    -10.07005167     -4.10757795
 H     -8.81971350     -9.55336958     -2.59871366
 H     -8.45805759    -12.27940670     -2.22382315
 H     -9.42078783    -11.71413270     -1.98213052
 H     -9.88525511    -12.78981491     -1.39780118
 H     -8.78949551    -13.36600794     -1.67883692
 H     -9.01606358    -14.34582817     -2.18583523
 H    -10.59997064    -13.61726881     -1.82707855
 H    -10.22033784    -13.62117620      0.54028141
 H     -9.46584179    -15.36566531     -0.15687826
 H    -10.15535604    -16.29665533     -0.64496023
 H    -11.54366591    -15.24767935     -0.27011124
 H    -10.98534091    -15.35795611      2.12456338
 H     -9.59627737    -16.40716008      1.75316045
 H    -11.43619859    -17.91598574      2.29586868
 H    -12.70855477    -16.55816712      1.47331766
 H    -11.92208892    -16.90020277      3.80022128
 H    -10.90517001    -18.25342671      3.24983273
 H    -13.32414451    -19.20606532      2.67742741
 H    -13.96865400    -17.67600982      3.31914724
 H    -12.83147074    -18.68634644      5.50841657
 H    -13.57026651    -20.26368196      4.41171244
 H    -15.20060558    -19.55393146      5.09779126
 H    -15.15463412    -19.58307077      5.26405943
 H    -15.78683523    -18.87919062      3.92861100
 H    -15.48581556    -18.41170188      5.24473068
 H    -14.94345874    -17.62192979      5.79138501
 H    -15.61643369    -18.81137734      6.93181735
 H    -17.88919087    -18.28648170      6.18450194
 H    -16.90796976    -16.54166114      5.68531698
 H    -16.28019096    -15.57812712      5.98406256
 H    -16.60071083    -16.22749457      7.61005628
 H    -19.01945803    -15.95817181      7.24669373
 H    -18.70378177    -15.30815330      5.62001272
 H    -17.54706812    -13.43170256      6.19347909
 H    -17.69288838    -13.79019892      7.93085742
 H    -20.12442786    -13.59231214      7.81329547
 H    -19.37233725    -12.13675408      6.61424762
 H    -18.79133379    -11.20676432      6.41491443
 H    -20.13223778    -11.28918745      7.95146815
 H    -21.15523377    -11.31122567      8.39793218
 H    -21.35182716    -11.04901416      6.64840001
 H    -20.17001884     -9.00358587      6.61101566
 H    -19.87855513     -9.09409017      8.36461896
 H    -22.48096820     -8.94144899      8.45847415
 H    -22.47107950     -8.87495635      6.67978148
 H    -21.16748850     -6.63378214      7.21041591
 H    -21.36211981     -7.03585644      8.93341376
 H    -23.91842423     -7.03397544      8.36026100
 H    -23.59493575     -6.45303833      6.94577348
 H    -23.46402963     -6.32955051     10.06830013
 H    -24.22595456     -7.70974876      9.24198913
 H    -25.92334094     -6.10465053      8.33371835
 H    -25.10029300     -4.77935875      9.19072503
 H    -25.65243813     -5.88733045     11.34325110
 H    -25.91432335     -7.08838687     10.87145146
 H    -25.72081853     -8.20971709     10.67050209
 H    -27.18006343     -7.90416003      9.69813082
 H    -27.76814961     -7.41774690     12.40238033
 H    -26.50815943     -9.01758211     12.21131047
 H    -26.98125271     -9.92503617     13.05876598
 H    -28.34203887     -9.60211527     11.57213903
 H    -28.72170292    -10.20888820     13.73477442
 H    -26.73112647     -9.84553600     14.16728781
 H    -28.23704569    -11.73443900     14.66278642
 H    -29.50280570    -11.01491224     13.29602709
 H    -29.44818316    -10.73952793     15.63962750
 H    -27.97353081    -11.72878092     15.76228818
 H    -29.43660921    -13.62441457     14.85777450
 H    -30.80197968    -12.48284141     14.80173156
 H    -31.61496236    -11.74968357     14.53765180
 H    -31.47181818    -11.68522922     16.31067804
 H    -31.98111963    -13.78201440     16.87744666
 H    -32.24026637    -14.26377875     15.18363063
 H    -34.15586460    -12.50558013     15.32297909
 H    -33.67397602    -12.21428991     17.01152878
 H    -34.28437550    -14.56981263     17.53299903
 H    -34.75267782    -14.81303924     15.83305773
 H    -36.49058570    -12.91367332     16.73604275
 H    -35.62774445    -13.06264582     18.28574557
 H    -36.09962970    -15.21686529     18.79250436
 H    -37.06381922    -15.43021295     17.31159652
 H    -38.29054162    -13.48568042     18.92779663
 H    -37.14389816    -13.32997699     19.66717028
 H    -36.28953338    -12.66231517     19.92496970
 H    -36.01179835    -14.22332697     20.73390238
 H    -37.89408582    -14.50689182     21.92150113
 H    -38.41045527    -13.02320751     21.66318000
 H    -36.70124646    -15.41985318     22.44194186
 H    -38.29935905    -15.49689906     21.66196319
 H    -39.31269738    -14.43317855     23.64097278
 H    -37.71327372    -14.35742681     24.41838663
 H    -37.38468996    -16.67681666     24.52228192
 H    -38.96237645    -16.98113807     23.75640954
 H    -40.41620864    -16.17604913     25.14649758
 H    -39.16834947    -15.66481476     26.30828654
 H    -38.03415113    -16.67640082     27.16096539
 H    -38.66549312    -18.18951612     26.46803246
 H    -40.60963905    -18.49245892     27.00154661
 H    -40.70235311    -17.00537499     27.97532901
 H    -38.85930638    -18.28558795     29.35681686
 H    -39.01460903    -19.60883271     28.17649018
 H    -40.24754362    -20.54600774     29.73564586
 H    -41.34379902    -18.90487906     29.85978249
 H    -39.73620615    -19.81599817     31.29738330
 H    -39.44327645    -21.17482952     30.18561164
 H    -41.80593943    -21.88799749     30.54263307
 H    -42.21472351    -20.61358192     31.25966836
 H    -42.85217117    -19.74595564     31.05224382
 H    -41.94648131    -19.65537271     32.58188014
 H    -43.05041484    -21.64289880     33.43754778
 H    -43.98823308    -21.78762861     31.93162052
 H    -45.20333631    -20.06861754     31.77007331
 H    -44.62218585    -19.37863451     33.30449640
 H    -45.58612686    -21.33160453     34.49705865
 H    -46.15100443    -21.99068564     32.94309852
 H    -47.60456617    -20.34190657     32.35027507
 H    -47.26933517    -19.41830522     33.83447432
 H    -48.05105679    -20.98095457     35.34828834
 H    -48.49508189    -22.10738400     34.04357951
 H    -50.04779009    -19.80645724     33.74976389
 H    -49.15449322    -19.24308144     35.18255665
 H    -50.43567956    -21.32571305     36.22115842
 H    -51.67225607    -20.50163654     34.79412088
 H    -52.28495101    -19.44952263     34.66864301
 H    -51.62675278    -19.12312594     36.28991009
 H    -53.01570718    -21.21251530     36.94344857
 H    -53.52863019    -21.32711940     35.24284793
 H    -54.62339466    -19.02999942     35.72830356
 H    -53.99022252    -19.14707765     37.38771683