152
Step 1 E=        19.2285
 C      0.00000000      0.00000000      0.00000000
 C      1.54000000      0.00000000      0.00000000
 C      2.16637443      1.40686000      0.00000000
 C      3.66258126      1.42635798      0.36412216
 C      4.37444288      2.74721905      0.01745361
 C      5.74756620      2.91509470      0.69417372
 C      6.61420783      4.03231159      0.08396170
 C      7.80827375      4.44933657      0.96253826
 C      8.86966735      5.28384156      0.22183248
 C      9.86262187      6.00358967      1.15328510
 C     11.12184635      6.52987085      0.43985548
 C     11.92973321      7.54856924      1.26518717
 C     13.35239120      7.79950336      0.73163652
 C     14.02631261      9.05674727      1.31195340
 C     15.54704658      9.11737171      1.07680900
 C     16.16348261     10.50756727      1.31963181
 C     17.69835589     10.49897091      1.44489208
 C     18.34467642     11.89133844      1.32167505
 C     19.80707386     11.94772305      1.80106479
 C     20.56498756     13.21107141      1.35260327
 C     21.88202353     13.45432906      2.11276245
 C     22.81209933     14.48190799      1.44146478
 C     23.93842489     14.99853024      2.35584554
 C     25.06861801     15.72825267      1.60633323
 C     25.99501164     16.55294604      2.51917259
 C     27.31536789     16.97914964      1.85088383
 C     28.07048235     18.08826088      2.60671081
 C     29.53502382     18.26278069      2.16369712
 C     30.17995830     19.57877757      2.63678453
 C     31.71539320     19.60112660      2.52042224
 C     32.33211895     21.00728535      2.63860394
 C     33.85172575     21.00580319      2.88838985
 C     34.52755776     22.36832012      2.64673158
 C     35.94761331     22.47586089      3.23280087
 C     36.75866971     23.66919963      2.69453500
 C     38.01430947     23.99796456      3.52331870
 C     39.01109206     24.92863720      2.80786575
 C     40.06859774     25.54891971      3.73981603
 C     41.26642507     26.17319671      3.00016211
 C     42.12961209     27.10006633      3.87618771
 C     43.50571763     27.43226051      3.26990347
 C     44.21521237     28.62270814      3.94150726
 C     45.71305728     28.73246331      3.60089833
 C     46.33860095     30.09354870      3.95830802
 C     47.87858458     30.09264660      3.96535159
 C     48.50582173     31.49910458      3.95831454
 C     50.00036084     31.52028944      4.32912992
 C     50.71461523     32.83825962      3.97643282
 C     52.08473541     33.01009158      4.65822785
 C     52.95484660     34.12247638      4.04413780
 H     -0.36333333      0.00000000      1.02766186
 H     -0.36333333     -0.88998127     -0.51383093
 H     -0.36333333      0.88998127     -0.51383093
 H      1.88274777     -0.52778528     -0.88998127
 H      1.88274777     -0.52778528      0.88998127
 H      1.62962592      2.02101998      0.72305501
 H      2.05048553      1.83364121     -0.99625678
 H      4.15717254      0.61860736     -0.17533905
 H      3.75648615      1.25769264      1.43689142
 H      3.73528646      3.57318737      0.32947188
 H      4.51745299      2.78633854     -1.06241572
 H      6.29022101      1.97384542      0.60656354
 H      5.58492586      3.14405090      1.74737226
 H      5.98363611      4.90706985     -0.07502660
 H      6.99911231      3.68290906     -0.87409175
 H      8.28610715      3.54634474      1.34251327
 H      7.42998472      5.03909210      1.79751480
 H      8.35704665      6.03512878     -0.37890668
 H      9.43363806      4.61865673     -0.43205296
 H     10.17502842      5.30336409      1.92800201
 H      9.35043231      6.84897395      1.61272744
 H     10.81419884      7.00881589     -0.48969531
 H     11.76813359      5.68146395      0.21486982
 H     12.00744527      7.17720748      2.28702438
 H     11.39075684      8.49598644      1.26292277
 H     13.29790978      7.90882650     -0.35149793
 H     13.96865155      6.93514349      0.97903338
 H     13.84452212      9.07804827      2.38647585
 H     13.57273755      9.93327282      0.84927359
 H     15.74596536      8.82981289      0.04441313
 H     16.02662478      8.40735002      1.75058489
 H     15.74654059     10.91094553      2.24242395
 H     15.89131889     11.15370606      0.48504715
 H     18.10290589      9.86245378      0.65794529
 H     17.96048921     10.08434135      2.41827199
 H     17.76148007     12.59382929      1.91706452
 H     18.31556825     12.19123888      0.27414823
 H     20.33053216     11.07627652      1.40778074
 H     19.81219144     11.91358169      2.89051795
 H     19.91592862     14.07304752      1.50693953
 H     20.79453568     13.11447190      0.29143590
 H     22.41514170     12.50648610      2.18678091
 H     21.63924254     13.81369382      3.11276963
 H     22.21004628     15.33352976      1.12464863
 H     23.26690569     14.01365826      0.56854246
 H     24.37012457     14.14729605      2.88228237
 H     23.50382338     15.68987485      3.07783180
 H     24.61753472     16.40164202      0.87751868
 H     25.67261256     14.98360640      1.08788120
 H     26.23342677     15.95302465      3.39743937
 H     25.46100537     17.45185529      2.82723015
 H     27.09061914     17.34019209      0.84727217
 H     27.96421896     16.10571990      1.78597790
 H     28.06036193     17.84674864      3.66956988
 H     27.54831792     19.03099937      2.44334486
 H     29.56909848     18.23653149      1.07454612
 H     30.11590230     17.43257680      2.56549518
 H     29.91313289     19.73487527      3.68202982
 H     29.77863904     20.39330709      2.03380483
 H     31.99174971     19.18600797      1.55119388
 H     32.12834646     18.97796934      3.31367166
 H     31.84904825     21.52487213      3.46736604
 H     32.13775576     21.54585503      1.71109887
 H     34.30792562     20.27390321      2.22182845
 H     34.02861219     20.71429128      3.92368304
 H     33.90966611     23.14279613      3.10115079
 H     34.58705663     22.53545584      1.57126631
 H     36.48714927     21.55927739      2.99431476
 H     35.86501091     22.57776747      4.31487845
 H     36.11292140     24.54730095      2.68766563
 H     37.07084604     23.43979020      1.67570368
 H     38.52488742     23.06378108      3.75722335
 H     37.69795270     24.48053520      4.44805865
 H     38.44972840     25.73746954      2.34014673
 H     39.52689503     24.35269132      2.03953402
 H     40.44340923     24.76755386      4.40093913
 H     39.58850256     26.32728850      4.33290173
 H     40.88570191     26.75298784      2.15933388
 H     41.89822967     25.36636957      2.62874198
 H     42.28756775     26.61298656      4.83842641
 H     41.58681240     28.03333257      4.02612978
 H     43.36767101     27.66662682      2.21438674
 H     44.14392399     26.55394450      3.36661763
 H     44.11630310     28.51563454      5.02171659
 H     43.72262055     29.54062798      3.62076364
 H     45.83375157     28.57045707      2.52978356
 H     46.24685277     27.95559336      4.14828801
 H     45.99147711     30.38021454      4.95099515
 H     45.99961821     30.82878545      3.22850145
 H     48.22506933     29.55840730      3.08068404
 H     48.21693577     29.57094015      4.86058388
 H     47.96615443     32.11865472      4.67456648
 H     48.39475020     31.91892830      2.95855899
 H     50.49691278     30.70847087      3.79763506
 H     50.08925847     31.35912674      5.40347800
 H     50.07455025     33.66677868      4.27970333
 H     50.86258247     32.86969093      2.89698028
 H     52.62720313     32.06793105      4.57972754
 H     51.91742568     33.24655299      5.70903394
 H     53.16013258     34.88158581      4.79892952
 H     52.42582155     34.57681059      3.20639505
 H     53.89444360     33.69637003      3.69244069
152
Step 10000 E=        15.6082
 C      0.00000000      0.00000000      0.00000000
 C      1.54000000      0.00000000      0.00000000
 C      2.16637443      0.55315051      1.29355309
 C      3.70068017      0.67577874      1.24387200
 C      4.44186851     -0.66364046      1.41178883
 C      5.96775678     -0.56220746      1.23019492
 C      6.67860024     -1.92467367      1.13025792
 C      8.20141578     -1.85417745      1.34857672
 C      8.61542316     -1.13971778      2.64847874
 C     10.12680925     -1.19388731      2.93895723
 C     10.51996437     -0.63379592      4.31856829
 C     12.00776649     -0.82047209      4.66956238
 C     12.42607974     -0.15957323      5.99614698
 C     13.86143327     -0.49841077      6.43948589
 C     14.19130509     -0.06367831      7.87955265
 C     13.14873219     -0.50786858      8.92230706
 C     12.94924756     -2.03300421      8.99824914
 C     11.93914974     -2.47993078     10.07135632
 C     10.59756816     -1.72541642     10.02168794
 C      9.72052794     -2.08626951      8.80835143
 C      9.95404596     -3.50922754      8.26774088
 C      9.74746372     -3.64348344      6.74757670
 C      9.58478412     -5.09632667      6.26344667
 C      8.93176275     -5.22436734      4.87464551
 C      9.18898915     -6.57645671      4.18378452
 C      8.45250513     -6.74427692      2.84176080
 C      8.88213758     -5.73485806      1.76097890
 C     10.33804469     -5.90464555      1.28863719
 C     10.73403558     -4.96955738      0.13088016
 C     12.19279863     -5.13255233     -0.33499858
 C     12.70491349     -3.97190667     -1.20806217
 C     14.21704615     -4.02387404     -1.49503637
 C     14.80527318     -2.69246637     -1.99797033
 C     14.11019272     -2.13540606     -3.25421353
 C     13.97552135     -0.60136171     -3.26731129
 C     12.78919391     -0.06965285     -2.44177335
 C     13.20330670      0.69694489     -1.17195505
 C     12.04269084      1.43527803     -0.47954261
 C     12.40930302      2.03168542      0.89213291
 C     11.23107446      2.71030952      1.61521437
 C     11.48679593      2.98413993      3.10894240
 C     10.25318262      3.50321793      3.87075356
 C      9.00074151      2.62175256      3.70947721
 C      7.91968989      2.86789271      4.77828142
 C      6.79509054      1.81583626      4.78559802
 C      6.89615903      0.79892418      5.93767222
 C      5.97812699     -0.42661366      5.77373877
 C      6.21447308     -1.53082138      6.82086142
 C      5.23177136     -2.71207599      6.71822193
 C      5.44174693     -3.79659426      7.79122257
 H     -0.36333333      0.00000000      1.02766186
 H     -0.36333333     -0.88998127     -0.51383093
 H     -0.36333333      0.88998127     -0.51383093
 H      1.88274777      0.95096856      0.40777784
 H      1.88274777     -0.12866898      1.02667827
 H      1.62962592      0.12980551      2.14254075
 H      3.17411548      0.90017544      1.06522950
 H      3.97883191      1.11104878      0.28404305
 H      4.09889358     -0.20579949      0.74153156
 H      3.94290148     -1.41114454      0.79504775
 H      4.38307079     -0.95892002      2.45938264
 H      6.31943066      0.31716677      1.76975626
 H      6.17940390     -0.44508672      0.16737404
 H      6.10019667     -2.56500535      0.46428145
 H      7.67384437     -1.82459877      1.56335622
 H      8.44347406     -0.87497261      1.76169373
 H      8.38651454     -1.46138317      2.34835224
 H      7.97353422     -1.49537507      3.45444802
 H      9.70371374     -1.08677701      2.67882502
 H     10.41802972     -0.25777730      3.41539053
 H     10.37525061     -2.20035178      3.27571554
 H      9.81722100     -1.01855402      5.05763051
 H     10.44818736      0.45316603      4.28033508
 H     12.60198168     -0.55766385      3.79438232
 H     12.09467619     -0.92120320      5.75141262
 H     13.17527325     -0.79176276      6.47274481
 H     12.47798432      0.91805062      5.84079979
 H     14.51575514     -0.42045094      5.57122029
 H     13.87233972     -1.52277722      6.81184918
 H     13.30797630     -0.22558496      8.49730381
 H     14.31925679      1.01873517      7.89001301
 H     12.44406195     -1.18276820      8.43645692
 H     12.26434565      0.11958011      8.81154343
 H     12.75763089     -2.30230970     10.03692984
 H     11.98348452     -2.22959020      9.46381943
 H     11.42577879     -1.59539925     10.44838980
 H     12.40932524     -2.37572006     11.04919840
 H     10.46005781     -1.33677824      9.01265312
 H     10.75334189     -0.72267930     10.41962365
 H     10.33955095     -2.61403834      8.08283743
 H     10.15017087     -1.61713303      7.92324245
 H     10.00630140     -4.19336528      9.11469126
 H     10.28701764     -3.43229091      7.23269952
 H     10.23211405     -2.79773558      6.25980153
 H      8.83835221     -4.21946406      6.57476874
 H      8.54873176     -5.24169754      5.95756626
 H      8.54801178     -5.24257347      5.96043679
 H      9.38496367     -4.48581722      4.21339469
 H      7.86667389     -5.01610301      4.97619203
 H      9.04767577     -7.36912943      4.91849568
 H     10.21952602     -6.58946803      3.82892615
 H      8.10809914     -5.76317506      2.51476898
 H      7.39692265     -6.91931116      3.04962773
 H      9.85675220     -5.33189571      2.03638350
 H      8.45244253     -4.76416219      2.00838888
 H     10.34624295     -5.91092573      0.19868611
 H     10.63440389     -4.99915658      0.75914596
 H     10.35396161     -3.97190888      0.35074659
 H     10.27147243     -5.34124429     -0.78344155
 H     12.41292167     -6.19772652     -0.40606042
 H     12.84376045     -4.67596665      0.41057384
 H     12.38897221     -3.03406221     -0.75119360
 H     13.24148384     -4.39331969     -2.05812294
 H     14.48144006     -5.04871717     -1.75559811
 H     14.74805844     -3.73070161     -0.58940074
 H     14.40276775     -1.88643590     -1.38445239
 H     14.04238807     -2.18053555     -2.58451371
 H     13.03260004     -2.22939272     -3.11982409
 H     14.42276431     -2.73143147     -4.11162400
 H     14.92312479     -0.17132516     -2.94294068
 H     13.75173845     -0.26827597     -2.25386415
 H     12.76712512     -0.60230516     -1.49103969
 H     11.87052415     -0.27134368     -2.99265145
 H     14.02233312      1.36870473     -1.42892672
 H     13.54512253     -0.02602233     -0.43129295
 H     11.18241908      0.76674927     -0.44634931
 H     11.79538617      2.31651940     -1.07144975
 H     13.38011462      2.51962677      0.80531090
 H     11.48992373      2.17779761      1.45913641
 H     10.35711547      2.06496018      1.52678414
 H     11.03055954      3.66275957      1.12456922
 H     12.49051245      3.39572223      3.21502326
 H     10.52506458      3.13472169      3.59934831
 H      9.38843940      3.43344438      3.21086659
 H      9.67498762      2.64466435      4.21233269
 H      8.62504629      2.37506467      4.70250198
 H      8.12452587      3.26999476      3.69815421
 H      7.80549977      3.94400725      4.90881155
 H      8.25548957      2.42194524      5.71448088
 H      7.24426771      0.83505938      4.94185606
 H      6.15079094      1.99686505      3.92524542
 H      7.12991148      1.34111807      6.85390668
 H      6.40767461     -0.12371948      5.62428483
 H      6.05102843     -0.77406387      4.74317401
 H      4.95365997     -0.11767201      5.98139808
 H      5.25174303     -1.80712733      7.25086824
 H      7.14186246     -2.04656831      6.57175493
 H      5.12906000     -2.98214672      5.66721661
 H      4.92458938     -2.99094821      7.72617507
 H      4.54166036     -3.88484673      8.39962678
 H      6.28390324     -3.52131609      8.42611994
 H      5.64829624     -4.75123354      7.30738249
152
Step 20000 E=        16.9712
 C      0.00000000      0.00000000      0.00000000
 C      1.54000000      0.00000000      0.00000000
 C      2.16637443      0.02951096      1.40655045
 C      3.70151086      0.15180556      1.40615045
 C      4.43462469     -1.16420545      1.08637062
 C      5.83420758     -1.27144596      1.71982718
 C      6.55307859     -2.60196424      1.42905997
 C      7.67758149     -2.93734278      2.42636356
 C      7.19171239     -3.65173516      3.70118697
 C      8.23437511     -3.68984561      4.83388378
 C      7.63374660     -3.93808878      6.23002872
 C      8.62705280     -4.54010375      7.24122641
 C      7.98200616     -4.97351619      8.57076336
 C      8.99574100     -5.39485390      9.65077086
 C      8.34930932     -5.87127577     10.96482880
 C      7.61937708     -7.22242447     10.84995449
 C      8.52749715     -8.39065655     10.42316209
 C      7.79337780     -9.73765506     10.28801849
 C      6.44357050     -9.64433889      9.55255107
 C      6.56544168     -9.26148216      8.06588764
 C      7.74037609     -9.94105356      7.33834943
 C      7.92122376     -9.48502178      5.87857919
 C      9.17764064    -10.05587391      5.19509952
 C      9.29575810     -9.69793128      3.70194001
 C     10.70031781     -9.92489175      3.11261755
 C     10.99480800     -9.08656411      1.85480902
 C     10.92942713     -7.56548166      2.08639818
 C     11.59733047     -7.10173057      3.39423610
 C     11.68678154     -5.57159807      3.54354461
 C     12.25923972     -5.10656695      4.89544613
 C     12.09992877     -3.59737687      5.15729592
 C     12.58176380     -3.14890960      6.54952870
 C     12.28030672     -1.67340756      6.87142518
 C     12.68652479     -0.69316651      5.75530942
 C     11.70316139      0.47574535      5.55975513
 C     10.35239524      0.06205186      4.94665766
 C      9.24825294      1.12625751      5.08785296
 C      7.85609211      0.64835894      4.63497196
 C      6.69019430      1.44958226      5.24351405
 C      5.29688999      0.93598259      4.83544731
 C      4.13137260      1.75695124      5.41783867
 C      2.73797437      1.23967081      5.01477254
 C      2.49038433     -0.23743960      5.37316339
 C      1.09190735     -0.75077569      4.98284530
 C      0.92418556     -2.27564705      5.11788883
 C      0.79161634     -2.76487003      6.57208492
 C      0.70669173     -4.29609855      6.71253782
 C      0.70338928     -4.79214957      8.17045499
 C      1.00450144     -6.29485401      8.32148754
 C      2.49833715     -6.64946174      8.20187040
 H     -0.36333333      0.00000000      1.02766186
 H     -0.36333333     -0.88998127     -0.51383093
 H     -0.36333333      0.88998127     -0.51383093
 H      1.88274777      0.72959904      0.73369558
 H      1.88274777     -0.50312118      0.90415322
 H      1.62962592     -0.68050204      2.03574244
 H      3.17676163      0.42990374      1.32346412
 H      3.98472486      0.91036372      0.67643863
 H      4.09668288     -0.49519491      0.62299691
 H      5.45715261     -0.92474290      0.79448993
 H      5.02582749     -1.44754494      1.95717369
 H      5.89044740     -2.21084930      2.26978941
 H      6.44069494     -1.93285875      1.10111384
 H      6.42226779     -2.83859138      0.37312619
 H      7.12047513     -2.88581163      2.31539615
 H      7.30640386     -2.75614946      3.43507370
 H      7.25904609     -3.55760983      3.21895229
 H      6.48309627     -4.42729361      3.41054581
 H      7.92406997     -3.48072978      4.49017971
 H      7.83367354     -3.14259191      5.68714320
 H      8.11216868     -4.62468167      5.38091863
 H      6.89908540     -4.73927612      6.14958136
 H      7.13959702     -3.02360506      6.55810754
 H      9.57339470     -4.00679546      7.15111926
 H      8.11768829     -5.32991838      7.79335017
 H      8.64708659     -5.68650428      9.05801688
 H      7.75553884     -4.07820453      9.14975351
 H      9.80837624     -4.66846784      9.66011222
 H      9.38904783     -6.37668316      9.38729216
 H      7.68377074     -6.70395215     10.73721411
 H      7.96983226     -4.99852931     11.49625215
 H      7.85204035     -7.65608192      9.87737595
 H      6.68476041     -7.06246378     10.31236332
 H      8.16279571     -9.30028989     10.90029942
 H      7.90282621     -9.16606323      9.97973148
 H      6.72870995     -9.56506263     10.44548027
 H      7.58204386    -10.11472718     11.28864559
 H      6.42869606     -8.71705203      8.97982267
 H      5.71857852     -9.18407273     10.22384957
 H      7.61861693     -9.09406261      7.84029378
 H      6.80485005     -8.19991005      8.00385305
 H      7.75904563    -10.99249024      7.62511130
 H      8.11122594     -9.25822799      6.57394140
 H      7.82383803     -8.39993466      5.84390981
 H      8.02872673    -10.37141735      5.25340241
 H      8.86728150    -10.58443105      4.29376465
 H      8.86698726    -10.58703356      4.29539741
 H      9.05243629     -8.64219711      3.58227439
 H      8.57757105    -10.30149057      3.14694131
 H     11.06783504    -10.88896873      3.46416651
 H     11.35576902     -9.13247650      3.47395090
 H     10.22505040     -8.31997166      1.76587500
 H     10.44669555     -9.51973536      1.01812784
 H     10.61802635     -7.38859837      3.11588439
 H      9.88205514     -7.27702901      2.17531947
 H     12.29241480     -6.29625623      3.15723641
 H     11.29557417     -6.07219825      3.58686614
 H     10.72970138     -5.14184067      3.24789932
 H     12.46960667     -5.20747881      2.87818608
 H     13.12926943     -5.72039099      5.12861638
 H     11.49585395     -5.25313655      5.65955313
 H     11.08894298     -3.30509983      4.87342646
 H     13.06585615     -3.19968464      5.46862403
 H     13.53795167     -3.63098586      6.75301635
 H     11.84740164     -3.47265411      7.28709342
 H     11.25782285     -1.45704943      6.56188376
 H     12.20083059     -1.12690048      5.93168396
 H     12.36754615     -1.11015279      4.80007381
 H     13.77199541     -0.59430766      5.76427957
 H     11.43159595      0.86312679      6.54173671
 H     10.71312142      0.14734101      5.87609587
 H     10.01389661     -0.84655828      5.44459972
 H     10.50470727     -0.13986856      3.88640808
 H      9.67513247      2.09804606      4.83985927
 H      8.90845464      1.13228542      6.12351738
 H      7.69090919     -0.35262461      5.03352753
 H      7.84368786      0.61231683      3.54563864
 H      6.93767919      2.50972556      5.18922382
 H      5.78873677      0.83942049      5.18714990
 H      5.29721601     -0.15149496      4.90955849
 H      5.11243799      1.22968076      3.80209411
 H      4.36756288      2.81507990      5.30524252
 H      3.20782163      1.19946624      5.26174871
 H      2.85682694      0.26036296      4.55116688
 H      2.41630339      0.50814812      5.75605679
 H      1.44519211     -0.34965210      5.66140214
 H      2.14760026     -0.75474399      4.47706336
 H      0.86547371     -0.39728600      3.97692640
 H      0.36713940     -0.33818175      5.68468407
 H      1.59529426     -2.62616874      5.90201105
 H      1.45666027     -2.75320392      4.29538647
 H      0.10398904     -2.10078464      7.09578264
 H      0.97935852     -3.83841312      6.59100840
 H      1.45955721     -4.74217326      6.06268329
 H     -0.28505306     -4.61520306      6.39204665
 H      0.13228333     -5.71945285      8.21569471
 H      1.71375157     -4.69518846      8.56777927
 H      1.69176297     -6.58815389      7.52792169
 H      1.90954332     -6.40470928      8.91892459
 H      2.83946179     -7.10406064      9.13196384
 H      3.07249175     -5.74337139      8.00835872
 H      2.64038316     -7.35194176      7.38062455
152
Step 30000 E=        22.3125
 C      0.00000000      0.00000000      0.00000000
 C      1.54000000      0.00000000      0.00000000
 C      2.16637443      0.87088048     -1.10490826
 C      3.65632937      0.57934859     -1.36306216
 C      4.55385500      0.76124454     -0.12493390
 C      6.05905991      0.81846133     -0.44537797
 C      6.75072810     -0.55745519     -0.45236760
 C      8.13994152     -0.55679863     -1.11696195
 C      8.94359062     -1.85068550     -0.88979485
 C      8.25798074     -3.11762854     -1.43421604
 C      9.09894063     -4.39889464     -1.28340608
 C      8.61756852     -5.57076249     -2.15896684
 C      9.62202695     -6.73405942     -2.25593854
 C      9.56173664     -7.50427633     -3.58812884
 C     10.46235245     -8.75273095     -3.63116636
 C      9.97860343     -9.90535556     -2.73169796
 C      8.47304859    -10.20545352     -2.85354143
 C      7.88047262    -10.94079981     -1.63710419
 C      7.94729247    -10.13663434     -0.32544379
 C      7.11942702     -8.83821295     -0.34390221
 C      7.20739193     -8.02070104      0.95822545
 C      6.59914409     -6.60973394      0.85427149
 C      6.61239795     -5.82283847      2.17798590
 C      6.19354968     -4.34789311      2.03410302
 C      6.42396929     -3.50476962      3.30203425
 C      6.17428476     -1.99782575      3.10613172
 C      4.91576779     -1.67364267      2.27991120
 C      3.61054831     -2.22313361      2.88494164
 C      3.22964190     -1.58742618      4.23489955
 C      3.05329919     -0.05855077      4.17973420
 C      2.60535808      0.56881921      5.51290923
 C      2.05815076      2.00200053      5.37816700
 C      1.00018477      2.16705546      4.27134054
 C     -0.02571896      3.28208394      4.54671846
 C     -1.04258266      3.49246832      3.40947327
 C     -0.44701961      4.14912885      2.15022683
 C     -1.49965938      4.74500500      1.19708407
 C     -0.92338038      5.23779742     -0.14331070
 C     -1.85656865      6.18997121     -0.91410557
 C     -1.31751161      6.61554141     -2.29247689
 C     -1.68831989      8.05565816     -2.69268303
 C     -0.83751209      8.62480697     -3.84324626
 C     -1.62290619      8.85744237     -5.14733095
 C     -0.78048770      9.46034935     -6.28681954
 C     -1.41063451      9.30193574     -7.68303590
 C     -0.56635270      9.90137943     -8.82297252
 C     -1.19772244      9.74524969    -10.21889363
 C     -0.25325310     10.11327689    -11.37826142
 C     -0.87436140      9.92767618    -12.77517833
 C     -0.34462117     10.91428555    -13.83233359
 H     -0.36333333      0.00000000      1.02766186
 H     -0.36333333     -0.88998127     -0.51383093
 H     -0.36333333      0.88998127     -0.51383093
 H      1.88274777     -0.09724409     -1.03012987
 H      1.88274777      0.96298223     -0.37853559
 H      1.62962592      1.81892747     -1.13966362
 H      3.09016696      0.39504245     -1.43397594
 H      3.79469890     -0.50153489     -1.38845475
 H      4.07302387      0.10952396     -0.47214662
 H      5.37761023      0.05052941     -0.19135163
 H      5.40661478      1.37855209     -0.40747970
 H      6.59465400      0.26222459      0.32393319
 H      6.34544339     -0.12239685     -0.91534648
 H      6.11351098     -1.25866636     -0.99121567
 H      7.80669574     -0.40909845     -0.67824948
 H      8.84596265     -1.03188338     -0.43583888
 H      8.56719539     -1.55478201     -1.01906763
 H      8.29030779     -2.58040388     -0.41143030
 H      8.46533767     -2.65405425     -1.45012759
 H      9.00132056     -3.70478267     -1.97347103
 H      8.24528707     -3.86733422     -0.64309010
 H      9.53019556     -4.40997980     -0.28240842
 H      8.99137315     -4.98861099     -2.19377077
 H      8.39837173     -5.18676238     -3.15525830
 H      8.98342724     -6.49914780     -1.72039174
 H      9.21099361     -7.48661344     -2.92885313
 H     10.43845805     -6.42830422     -2.91019690
 H      9.49924545     -6.77997447     -4.40027518
 H      9.50704745     -8.56994644     -3.36574110
 H     10.17113476     -9.41373914     -2.81485734
 H     11.49707803     -8.42556721     -3.73318036
 H      9.11163901     -9.55995113     -2.16852084
 H     10.19213455     -9.64409514     -1.69523886
 H      8.26995490    -11.15018229     -2.34921960
 H      8.06959324    -10.34729882     -1.85094296
 H      8.51378836    -10.73964439     -0.77307429
 H      8.20883407    -11.97960512     -1.67119634
 H      8.13600587     -9.09204423     -0.57307003
 H      8.97860717    -10.14140130      0.02735538
 H      6.61494570     -8.73968484      0.61729018
 H      7.64497578     -8.10531104     -0.95607317
 H      8.25061330     -7.98769695      1.27239084
 H      6.37294711     -7.31974960      0.97988021
 H      5.64582069     -6.68514259      0.33121506
 H      7.33033746     -5.89290596      1.22792092
 H      7.19383102     -4.91282711      2.02994907
 H      7.19638724     -4.91432491      2.03081386
 H      5.31436115     -4.30239167      1.39140779
 H      7.01369886     -3.80269531      1.56696849
 H      7.40952348     -3.74650031      3.69996543
 H      5.66133935     -3.77094233      4.03391379
 H      5.96209634     -1.81976476      2.05191620
 H      7.00732391     -1.58334229      2.53837364
 H      4.32156461     -2.58294304      2.18938260
 H      5.12690418     -1.89314652      1.23332652
 H      3.77387329     -2.40138950      3.94779148
 H      3.23380428     -1.49637268      3.60465163
 H      3.73006791     -0.62221063      4.31257038
 H      3.89131960     -1.98967730      5.00202188
 H      2.47620929      0.18797085      3.28850228
 H      4.04064949      0.39809630      4.11108408
 H      3.11662160      1.52420311      5.63102451
 H      1.57899988      0.91792059      5.39969664
 H      1.95690789      2.23191968      4.31751293
 H      2.89859469      2.67535870      5.20981386
 H      0.87848436      3.23126487      4.06948083
 H      0.60333157      3.18082658      4.32496551
 H      0.51006333      4.15819441      4.91205090
 H     -0.71518060      2.93144312      5.31469871
 H     -1.38929490      2.51487638      3.07450369
 H     -0.56916601      3.20872009      2.46954582
 H      0.50875310      3.67173135      1.93414780
 H     -0.28593649      5.20679344      2.35878822
 H     -2.23097226      5.29148592      1.79260073
 H     -1.37149404      4.28781329      0.21593710
 H     -0.22781746      4.48524134     -0.51472903
 H     -0.38817813      6.17030236      0.03583474
 H     -2.26795346      6.91207200     -0.20881627
 H     -1.57666805      6.16607542     -1.96728392