602
Step 1 E=        80.5952
 C      0.00000000      0.00000000      0.00000000
 C      1.54000000      0.00000000      0.00000000
 C      2.16637443      1.40686000      0.00000000
 C      3.66258126      1.42635798      0.36412216
 C      4.37444288      2.74721905      0.01745361
 C      5.74756620      2.91509470      0.69417372
 C      6.61420783      4.03231159      0.08396170
 C      7.80827375      4.44933657      0.96253826
 C      8.86966735      5.28384156      0.22183248
 C      9.86262187      6.00358967      1.15328510
 C     11.12184635      6.52987085      0.43985548
 C     11.92973321      7.54856924      1.26518717
 C     13.35239120      7.79950336      0.73163652
 C     14.02631261      9.05674727      1.31195340
 C     15.54704658      9.11737171      1.07680900
 C     16.16348261     10.50756727      1.31963181
 C     17.69835589     10.49897091      1.44489208
 C     18.34467642     11.89133844      1.32167505
 C     19.80707386     11.94772305      1.80106479
 C     20.56498756     13.21107141      1.35260327
 C     21.88202353     13.45432906      2.11276245
 C     22.81209933     14.48190799      1.44146478
 C     23.93842489     14.99853024      2.35584554
 C     25.06861801     15.72825267      1.60633323
 C     25.99501164     16.55294604      2.51917259
 C     27.31536789     16.97914964      1.85088383
 C     28.07048235     18.08826088      2.60671081
 C     29.53502382     18.26278069      2.16369712
 C     30.17995830     19.57877757      2.63678453
 C     31.71539320     19.60112660      2.52042224
 C     32.33211895     21.00728535      2.63860394
 C     33.85172575     21.00580319      2.88838985
 C     34.52755776     22.36832012      2.64673158
 C     35.94761331     22.47586089      3.23280087
 C     36.75866971     23.66919963      2.69453500
 C     38.01430947     23.99796456      3.52331870
 C     39.01109206     24.92863720      2.80786575
 C     40.06859774     25.54891971      3.73981603
 C     41.26642507     26.17319671      3.00016211
 C     42.12961209     27.10006633      3.87618771
 C     43.50571763     27.43226051      3.26990347
 C     44.21521237     28.62270814      3.94150726
 C     45.71305728     28.73246331      3.60089833
 C     46.33860095     30.09354870      3.95830802
 C     47.87858458     30.09264660      3.96535159
 C     48.50582173     31.49910458      3.95831454
 C     50.00036084     31.52028944      4.32912992
 C     50.71461523     32.83825962      3.97643282
 C     52.24950474     32.72434362      3.92411330
 C     52.94235244     33.91112495      3.22905060
 C     54.45828673     33.99074464      3.48828781
 C     55.20954297     34.93092027      2.52741121
 C     56.63041510     35.29839502      2.99397814
 C     57.50883047     35.92326409      1.89419402
 C     58.77654168     36.61838318      2.42458795
 C     59.82677823     36.91897523      1.33911680
 C     60.91224397     37.91946033      1.77774387
 C     62.14641465     37.94823462      0.85709476
 C     63.05507419     39.17396008      1.06574508
 C     64.45044821     39.03486794      0.42920388
 C     65.22123428     40.36303950      0.31323340
 C     66.72454316     40.19183218      0.02626571
 C     67.42250667     41.48024861     -0.44747476
 C     68.96003518     41.41876112     -0.38562511
 C     69.66402226     42.53275225     -1.18251027
 C     71.15557273     42.70203475     -0.83867800
 C     71.94328843     43.53997280     -1.86286733
 C     73.31737309     44.01735929     -1.35730480
 C     74.25066125     44.52991090     -2.46989820
 C     75.45804459     45.33436943     -1.95349530
 C     76.57117238     45.53384108     -2.99884575
 C     77.59419809     46.62238049     -2.62454593
 C     78.88736462     46.58038730     -3.45974466
 C     79.74330037     47.85620129     -3.35357192
 C     81.18259890     47.69010048     -3.87552044
 C     81.92036519     49.02090623     -4.11270589
 C     83.44420636     48.87156546     -4.27764656
 C     84.13510925     50.11466273     -4.86837693
 C     85.66588827     50.11977471     -4.70018223
 C     86.39011142     51.14907840     -5.58767012
 C     87.84890923     51.41707695     -5.17332034
 C     88.68032424     52.14700214     -6.24456181
 C     90.00185760     52.73652090     -5.71766787
 C     90.99403010     53.13819572     -6.82484946
 C     92.13901858     54.04696084     -6.34034218
 C     93.31506094     54.15369585     -7.32884206
 C     94.27766809     55.31895677     -7.03362271
 C     95.62586111     55.21993472     -7.77130166
 C     96.43480003     56.53035133     -7.77641357
 C     97.91081300     56.35373276     -8.17864683
 C     98.62390709     57.67046725     -8.53823979
 C    100.15919561     57.55911228     -8.58394811
 C    100.85242472     58.74213001     -9.28502046
 C    102.36721545     58.82653546     -9.02066321
 C    103.12032258     59.76113256     -9.98552481
 C    104.53872522     60.13471121     -9.51629893
 C    105.42011031     60.75324359    -10.61728850
 C    106.68449392     61.45462843    -10.08720040
 C    107.73825645     61.74932602    -11.17086910
 C    108.82016684     62.75505174    -10.73545470
 C    110.05775182     62.77949044    -11.65163490
 C    110.96330177     64.00843865    -11.44849551
 C    112.36133162     63.86739108    -12.07874793
 C    113.13004292     65.19615701    -12.20148362
 C    114.63474605     65.02574487    -12.48153395
 C    115.33206266     66.31201469    -12.96201235
 C    116.86945971     66.25392235    -12.89392717
 C    117.57435031     67.36343253    -13.69624657
 C    119.06426852     67.53806698    -13.34804184
 C    119.85426698     68.37003862    -14.37533226
 C    121.22552780     68.85372001    -13.86808864
 C    122.16204554     69.35994997    -14.98086254
 C    123.36594837     70.17045387    -14.46578838
 C    124.48264076     70.36444620    -15.50836455
 C    125.50218865     71.45763624    -15.13815157
 C    126.79857952     71.41204403    -15.96814679
 C    127.65169895     72.69023292    -15.86804482
 C    129.09327078     72.52309517    -16.38334631
 C    129.82941576     73.85355019    -16.62743643
 C    131.35414853     73.70593100    -16.78554576
 C    132.04493227     74.94601836    -17.38270669
 C    133.57505229     74.95528432    -17.20879043
 C    134.30068100     75.97948909    -18.10101662
 C    135.75739405     76.25328709    -17.68313893
 C    136.59147309     76.97699027    -18.75652882
 C    137.90989085     77.57285534    -18.22896893
 C    138.90548117     77.96836375    -19.33530207
 C    140.04691344     78.88281982    -18.85311697
 C    141.22647995     78.98461214    -19.83793227
 C    142.18576393     80.15383057    -19.54758330
 C    143.53691984     80.05202589    -20.27943951
 C    144.34339817     81.36391687    -20.29104740
 C    145.82125149     81.18720285    -20.68642282
 C    146.53321369     82.50264930    -21.05290677
 C    148.06887138     82.39390413    -21.09202126
 C    148.76251173     83.57311539    -21.79907421
 C    150.27613053     83.66234152    -21.52963625
 C    151.03111411     84.59133480    -22.49843514
 C    152.44702572     84.97103180    -22.02660413
 C    153.33139701     85.58322458    -23.12874179
 C    154.59244239     86.29086638    -22.59901767
 C    155.64973518     86.57968956    -23.68082778
 C    156.72809250     87.59062558    -23.24867750
 C    157.96908304     87.61076785    -24.16034451
 C    158.87153817     88.84289266    -23.96275104
 C    160.27220376     88.69994057    -24.58669063
 C    161.03886476     90.02924766    -24.71620345
 C    162.54493448     89.85968366    -24.98933721
 C    163.24163371     91.14375668    -25.47654010
 C    164.77886933     91.08910450    -25.40224484
 C    165.48469242     92.19409607    -26.20996224
 C    166.97295177     92.37411100    -25.85743032
 C    167.76525596     93.20009819    -26.88776970
 C    169.13367471     93.69008113    -26.37890152
 C    170.07343461     94.18999449    -27.49179772
 C    171.27385058     95.00652727    -26.97810937
 C    172.39410740     95.19506743    -28.01785803
 C    173.41018416     96.29287159    -27.65177873
 C    174.70978648     96.24372448    -28.47653225
 C    175.56010807     97.52423865    -28.38252874
 C    177.00393001     97.35611670    -28.89116733
 C    177.73848047     98.68616767    -29.14216543
 C    179.26407576     98.54032142    -29.29345282
 C    179.95477032     99.77735193    -29.89702264
 C    181.48420189     99.79081211    -29.71741774
 C    182.21126369    100.80988632    -30.61433964
 C    183.66586771    101.08950529    -30.19298425
 C    184.50263062    101.80697612    -31.26846714
 C    185.81791832    102.40918619    -30.74029928
 C    186.81693486    102.79854108    -31.84572622
 C    187.95480898    103.71866423    -31.36591805
 C    189.13789502    103.81554756    -32.34699962
 C    190.09386679    104.98868159    -32.06156221
 C    191.44796882    104.88414238    -32.78756446
 C    192.25200834    106.19745574    -32.80568811
 C    193.73167626    106.02069968    -33.19419829
 C    194.44253505    107.33480581    -33.56756788
 C    195.97853207    107.22871906    -33.60010638
 C    196.67261343    108.40408123    -34.31311047
 C    198.18503202    108.49816263    -34.03863149
 C    198.94191749    109.42152720    -35.01131964
 C    200.35531670    109.80735655    -34.53693754
 C    201.24269047    110.41320728    -35.64016584
 C    202.50038720    111.12709684    -35.11086381
 C    203.56121429    111.41006603    -36.19075932
 C    204.63602107    112.42618165    -35.76192437
 C    205.88040820    112.44206697    -36.66903424
 C    206.77978350    113.67732204    -36.47702129
 C    208.18306453    113.53251643    -37.09462448
 C    208.94769984    114.86231144    -37.23092586
 C    210.45510840    114.69364851    -37.49714429
 C    211.15121982    115.97547468    -37.99105779
 C    212.68826405    115.92430743    -37.91057830
 C    213.39504856    117.02474302    -38.72365712
 C    214.88162254    117.21016659    -38.36684359
 C    215.67625525    118.03015174    -39.40017955
 C    217.04181394    118.52644243    -38.88974345
 C    217.98482836    119.02004469    -40.00270375
 C    219.18175137    119.84258941    -39.49045820
 C    220.30557217    120.02570496    -40.52732632
 H     -0.36333333      0.00000000      1.02766186
 H     -0.36333333     -0.88998127     -0.51383093
 H     -0.36333333      0.88998127     -0.51383093
 H      1.88274777     -0.52778528     -0.88998127
 H      1.88274777     -0.52778528      0.88998127
 H      1.62962592      2.02101998      0.72305501
 H      2.05048553      1.83364121     -0.99625678
 H      4.15717254      0.61860736     -0.17533905
 H      3.75648615      1.25769264      1.43689142
 H      3.73528646      3.57318737      0.32947188
 H      4.51745299      2.78633854     -1.06241572
 H      6.29022101      1.97384542      0.60656354
 H      5.58492586      3.14405090      1.74737226
 H      5.98363611      4.90706985     -0.07502660
 H      6.99911231      3.68290906     -0.87409175
 H      8.28610715      3.54634474      1.34251327
 H      7.42998472      5.03909210      1.79751480
 H      8.35704665      6.03512878     -0.37890668
 H      9.43363806      4.61865673     -0.43205296
 H     10.17502842      5.30336409      1.92800201
 H      9.35043231      6.84897395      1.61272744
 H     10.81419884      7.00881589     -0.48969531
 H     11.76813359      5.68146395      0.21486982
 H     12.00744527      7.17720748      2.28702438
 H     11.39075684      8.49598644      1.26292277
 H     13.29790978      7.90882650     -0.35149793
 H     13.96865155      6.93514349      0.97903338
 H     13.84452212      9.07804827      2.38647585
 H     13.57273755      9.93327282      0.84927359
 H     15.74596536      8.82981289      0.04441313
 H     16.02662478      8.40735002      1.75058489
 H     15.74654059     10.91094553      2.24242395
 H     15.89131889     11.15370606      0.48504715
 H     18.10290589      9.86245378      0.65794529
 H     17.96048921     10.08434135      2.41827199
 H     17.76148007     12.59382929      1.91706452
 H     18.31556825     12.19123888      0.27414823
 H     20.33053216     11.07627652      1.40778074
 H     19.81219144     11.91358169      2.89051795
 H     19.91592862     14.07304752      1.50693953
 H     20.79453568     13.11447190      0.29143590
 H     22.41514170     12.50648610      2.18678091
 H     21.63924254     13.81369382      3.11276963
 H     22.21004628     15.33352976      1.12464863
 H     23.26690569     14.01365826      0.56854246
 H     24.37012457     14.14729605      2.88228237
 H     23.50382338     15.68987485      3.07783180
 H     24.61753472     16.40164202      0.87751868
 H     25.67261256     14.98360640      1.08788120
 H     26.23342677     15.95302465      3.39743937
 H     25.46100537     17.45185529      2.82723015
 H     27.09061914     17.34019209      0.84727217
 H     27.96421896     16.10571990      1.78597790
 H     28.06036193     17.84674864      3.66956988
 H     27.54831792     19.03099937      2.44334486
 H     29.56909848     18.23653149      1.07454612
 H     30.11590230     17.43257680      2.56549518
 H     29.91313289     19.73487527      3.68202982
 H     29.77863904     20.39330709      2.03380483
 H     31.99174971     19.18600797      1.55119388
 H     32.12834646     18.97796934      3.31367166
 H     31.84904825     21.52487213      3.46736604
 H     32.13775576     21.54585503      1.71109887
 H     34.30792562     20.27390321      2.22182845
 H     34.02861219     20.71429128      3.92368304
 H     33.90966611     23.14279613      3.10115079
 H     34.58705663     22.53545584      1.57126631
 H     36.48714927     21.55927739      2.99431476
 H     35.86501091     22.57776747      4.31487845
 H     36.11292140     24.54730095      2.68766563
 H     37.07084604     23.43979020      1.67570368
 H     38.52488742     23.06378108      3.75722335
 H     37.69795270     24.48053520      4.44805865
 H     38.44972840     25.73746954      2.34014673
 H     39.52689503     24.35269132      2.03953402
 H     40.44340923     24.76755386      4.40093913
 H     39.58850256     26.32728850      4.33290173
 H     40.88570191     26.75298784      2.15933388
 H     41.89822967     25.36636957      2.62874198
 H     42.28756775     26.61298656      4.83842641
 H     41.58681240     28.03333257      4.02612978
 H     43.36767101     27.66662682      2.21438674
 H     44.14392399     26.55394450      3.36661763
 H     44.11630310     28.51563454      5.02171659
 H     43.72262055     29.54062798      3.62076364
 H     45.83375157     28.57045707      2.52978356
 H     46.24685277     27.95559336      4.14828801
 H     45.99147711     30.38021454      4.95099515
 H     45.99961821     30.82878545      3.22850145
 H     48.22506933     29.55840730      3.08068404
 H     48.21693577     29.57094015      4.86058388
 H     47.96615443     32.11865472      4.67456648
 H     48.39475020     31.91892830      2.95855899
 H     50.49691278     30.70847087      3.79763506
 H     50.08925847     31.35912674      5.40347800
 H     50.07455025     33.66677868      4.27970333
 H     50.86258247     32.86969093      2.89698028
 H     52.50736665     31.81303762      3.38454995
 H     52.62342891     32.65973319      4.94592845
 H     52.48445794     34.83308527      3.58741047
 H     52.78268302     33.81987076      2.15467713
 H     54.87670203     32.98955244      3.38512386
 H     54.61361126     34.34625959      4.50690620
 H     54.63309957     35.85058357      2.42724928
 H     55.28357191     34.44095585      1.55655870
 H     57.11969236     34.39157295      3.34947987
 H     56.54814449     36.01209350      3.81371348
 H     56.91260871     36.66100763      1.35720791
 H     57.81296258     35.13281178      1.20805351
 H     59.23356565     35.97231047      3.17413391
 H     58.48268950     37.56047051      2.88742957
 H     59.31329540     37.32963840      0.46975430
 H     60.31382850     35.98318058      1.06494461
 H     61.24000933     37.65112092      2.78206644
 H     60.47290493     38.91687676      1.79328959
 H     61.80251431     37.94861760     -0.17723227
 H     62.73454680     37.04977622      1.04410563
 H     63.18106185     39.32878164      2.13731281
 H     62.56390344     40.04316455      0.62832665
 H     64.33084890     38.61949271     -0.57142564
 H     65.03867743     38.34935157      1.03924789
 H     65.11114910     40.90628780      1.25177617
 H     64.78170577     40.94477890     -0.49700975
 H     66.84147273     39.43398028     -0.74838775
 H     67.21186623     39.85452474      0.94105526
 H     67.08677419     42.30360743      0.18297265
 H     67.12831144     41.66972604     -1.47977679
 H     69.28091442     40.45659149     -0.78483197
 H     69.26456414     41.49896623      0.65789262
 H     69.15581373     43.47484238     -0.97686428
 H     69.58132002     42.29947934     -2.24403940
 H     71.60918703     41.71241143     -0.78409079
 H     71.23004740     43.18996413      0.13316481
 H     71.34844827     44.41692305     -2.11825616
 H     72.09817450     42.93354529     -2.75525513
 H     73.80736305     43.18234707     -0.85654097
 H     73.15811385     44.82598705     -0.64396222
 H     73.67144502     45.17018990     -3.13521869
 H     74.62422319     43.67061341     -3.02681767
 H     75.88115995     44.80674415     -1.09869417
 H     75.10564939     46.31591785     -1.63650900
 H     76.10687590     45.81075152     -3.94533896
 H     77.10307268     44.58986091     -3.11751968
 H     77.85985705     46.49668790     -1.57491423
 H     77.12585182     47.59631449     -2.76668785
 H     78.61551378     46.43606692     -4.50538740
 H     79.48727079     45.73595367     -3.12041526
 H     79.79074901     48.15084662     -2.30522429
 H     79.25815318     48.64342822     -3.93063861
 H     81.14426348     47.14648329     -4.81950706
 H     81.74729570     47.11058494     -3.14519224
 H     81.73018649     49.67466761     -3.26151372
 H     81.52074996     49.47770247     -5.01810352
 H     83.63621992     48.02622664     -4.93842873
 H     83.87714847     48.67215455     -3.29739332
 H     83.73290135     50.99828879     -4.37286326
 H     83.90715601     50.15990011     -5.93331397
 H     86.04144799     49.12744636     -4.94986071
 H     85.89548944     50.34364949     -3.65842247
 H     85.84163840     52.08977314     -5.53897972
 H     86.38743125     50.77959280     -6.61313255
 H     88.32644204     50.46033626     -4.96187371
 H     87.84210328     52.02723293     -4.27012415
 H     88.07905806     52.96115870     -6.64919506
 H     88.91385342     51.43819287     -7.03901353
 H     90.48047308     51.99120349     -5.08242840
 H     89.77036238     53.62277807     -5.12685641
 H     90.44344363     53.66617812     -7.60343093
 H     91.42995835     52.22974219     -7.24051609
 H     92.51762121     53.64885117     -5.39892371
 H     91.73711617     55.04683571     -6.17655971
 H     92.90902650     54.29007980     -8.33115711
 H     93.88123633     53.22309729     -7.28970475
 H     94.47410837     55.33806565     -5.96164041
 H     93.79192178     56.24844255     -7.33061887
 H     95.43086768     54.93347873     -8.80475244
 H     96.22545822     54.44888539     -7.28749774
 H     96.40143656     56.95765339     -6.77421606
 H     95.96765619     57.21877546     -8.48064992
 H     97.95337079     55.69329643     -9.04473729
 H     98.44067514     55.89370259     -7.34454950
 H     98.35663157     58.41961067     -7.79295599
 H     98.27428810     57.99282292     -9.51903201
 H    100.42081410     56.64440052     -9.11588624
 H    100.52937638     57.50265297     -7.56028872
 H    100.39144018     59.66579463     -8.93511056
 H    100.69698954     58.64275693    -10.35929458
 H    102.78790614     57.82542211     -9.11495747
 H    102.51801787     59.18974791     -8.00408298
 H    102.54252752     60.67893764    -10.09455100
 H    103.19894476     59.26426102    -10.95249804
 H    105.02836563     59.23143766     -9.15236326
 H    104.45201043     60.85419537     -8.70209804
 H    104.82453133     61.48591840    -11.16187395
 H    105.72832454     59.95840438    -11.29650468
 H    107.13990000     60.81490170     -9.33125396
 H    106.38711737     62.39949360     -9.63234110
 H    107.22728908     62.15267016    -12.04512642
 H    108.22810442     60.81249572    -11.43638361
 H    109.14463976     62.49465361     -9.72797759
 H    108.37889088     63.75171197    -10.72882703
 H    109.71776309     62.77169056    -12.68722499
 H    110.64686727     61.88354385    -11.45587309
 H    111.08494615     64.17129241    -10.37761677
 H    110.47214848     64.87349611    -11.89407832
 H    112.24629907     63.44451931    -13.07676946
 H    112.94854346     63.18745814    -11.46151745
 H    113.01538640     65.74600686    -11.26734283
 H    112.69248295     65.77114419    -13.01759085
 H    114.75603243     64.26250285    -13.25020244
 H    115.11924379     64.69603478    -11.56248379
 H    114.99239675     67.13929384    -12.33884602
 H    115.04141413     66.49341381    -13.99676729
 H    117.19366047     65.28949011    -13.28490584
 H    117.16989062     66.34229952    -11.84988180
 H    117.06359139     68.30601911    -13.49938146
 H    117.49610105     67.12228554    -14.75635278
 H    119.51953983     66.54973718    -13.28454193
 H    119.13414873     68.03319506    -12.37950431
 H    119.25874261     69.24396739    -14.63933838
 H    120.01366877     67.75743288    -15.26269086
 H    121.71519637     68.02331239    -13.35941599
 H    121.06204803     69.66720940    -13.16125812
 H    121.58414088     69.99426195    -15.65300429
 H    122.53933049     68.49734049    -15.53009925
 H    123.78682482     69.64987201    -13.60558053
 H    123.01050613     71.15360589    -14.15728731
 H    124.02140319     70.63357444    -16.45859079
 H    125.01676609     69.42064769    -15.61815753
 H    125.76411530     71.34009161    -14.08663948
 H    125.03254601     72.42961203    -15.28914448
 H    126.53095546     71.25960050    -17.01372717
 H    127.39879125     70.57125130    -15.62042063
 H    127.69462893     72.99258722    -14.82169932
 H    127.16725166     73.47231078    -16.45265156
 H    129.05952930     71.97255270    -17.32348699
 H    129.65629577     71.94999006    -15.64669620
 H    129.63478805     74.51312121    -15.78174965
 H    129.43236411     74.30298193    -17.53763481
 H    131.55025293     72.85617667    -17.43942696
 H    131.78375817     73.51448567    -15.80224303
 H    131.63918779     75.83245416    -16.89515877
 H    131.82092065     74.98307091    -18.44879576
 H    133.95342479     73.96188667    -17.44982022
 H    133.80029161     75.18717086    -16.16783132
 H    133.75025380     76.91946141    -18.06124330
 H    134.30257382     75.60254882    -19.12376412
 H    136.23592876     75.29902589    -17.46293426
 H    135.74602318     76.86998331    -16.78444183
 H    135.99020531     77.78702912    -19.16934128
 H    136.82934032     76.26286869    -19.54491295
 H    138.38750754     76.83309650    -17.58652115
 H    137.67449239     78.46294227    -17.64550273
 H    138.35684600     78.48961318    -20.11977545
 H    139.34469076     77.05774660    -19.74269788
 H    140.42270579     78.49229480    -17.90740543
 H    139.64250887     79.88308846    -18.69813446
 H    140.82398006     79.11292332    -20.84273577
 H    141.79425837     78.05540851    -19.78988767
 H    142.37811482     80.18111338    -18.47503644
 H    141.69939056     81.08019955    -19.85316709
 H    143.34637463     79.75768660    -21.31150390
 H    144.13613799     79.28566580    -19.78777923
 H    144.30544088     81.79843371    -19.29212079
 H    143.87762115     82.04630407    -21.00203226
 H    145.86832852     80.52056608    -21.54751466
 H    146.34882447     80.73426793    -19.84700832
 H    146.26171014     83.25668159    -20.31410970
 H    146.18669648     82.81719150    -22.03732996
 H    148.33422403     81.47584938    -21.61629547
 H    148.43528645     82.34560197    -20.06659115
 H    148.29846590     84.49841686    -21.45763806
 H    148.61132569     83.46563246    -22.87317393
 H    150.69906291     82.66137591    -21.61505312
 H    150.42240405     84.03322776    -20.51516720
 H    150.45200442     85.50721463    -22.61631684
 H    151.11432786     84.08759334    -23.46146162
 H    152.93699069     84.07136872    -21.65425929
 H    152.35587678     85.69625270    -21.21799638
 H    152.73649910     86.31077675    -23.68088699
 H    153.64367543     84.78405678    -23.80098655
 H    155.04619442     85.65752892    -21.83672327
 H    154.29156642     87.23844451    -22.15217392
 H    155.14131555     86.97568407    -24.55991698
 H    156.14235006     85.64189198    -23.93766682
 H    157.04924610     87.33818513    -22.23811617
 H    156.28491477     88.58646103    -23.25096936
 H    157.63302610     87.59478364    -25.19712329
 H    158.55914396     86.71739853    -23.95584664
 H    158.98882676     89.01376508    -22.89263609
 H    158.38044103     89.70374387    -24.41646769
 H    160.16174221     88.26960018    -25.58203248
 H    160.85836052     88.02564123    -23.96231842
 H    160.91964111     90.58565810    -23.78652978
 H    160.60330821     90.59744392    -25.53811799
 H    162.67056518     89.09110356    -25.75196526
 H    163.02657647     89.53759630    -24.06609253
 H    162.89805452     91.97489554    -24.86069797
 H    162.95455636     91.31706666    -26.51367570
 H    165.10636475     90.12247593    -25.78496660
 H    165.07518480     91.18564950    -24.35774677
 H    164.97141539     93.13711032    -26.02189096
 H    165.41090559     91.94509408    -27.26857148
 H    167.42984395     91.38714269    -25.78502119
 H    167.03823646     92.87640472    -24.89226768
 H    167.16908565     94.07094157    -27.16037339
 H    167.92916607     92.58135963    -27.77003727
 H    169.62298332     92.86433490    -25.86235505
 H    168.96598991     94.50837655    -25.67863413
 H    169.49687857     94.81829250    -28.17071210
 H    170.45441975     93.32413614    -28.03331377
 H    171.69245442     94.49302367    -26.11255470
 H    170.91539036     95.99121528    -26.67811639
 H    171.93595751     95.45639239    -28.97174899
 H    172.93042383     94.25151944    -28.11876330
 H    173.66835606     96.18348121    -26.59845968
 H    172.93928232     97.26282235    -27.81161295
 H    174.44640426     96.08316658    -29.52197520
 H    175.31026515     95.40663422    -28.12043498
 H    175.59851246     97.83427849    -27.33825847
 H    175.07639890     98.30111408    -28.97463515
 H    176.97478096     96.79868592    -29.82739447
 H    177.56524722     96.78946461    -28.14824848
 H    177.53941361     99.35149959    -28.30204292
 H    177.34402441     99.12820510    -30.05710112
 H    179.46425322     97.68620972    -29.94038574
 H    179.69032640     98.35685724    -28.30717127
 H    179.54551410    100.66653268    -29.41747396
 H    179.73472009     99.80621904    -30.96418926
 H    181.86535649     98.79641350    -29.94978075
 H    181.70506731    100.03069601    -28.67733401
 H    181.65891739    101.74906765    -30.58348521
 H    182.21773325    100.42552011    -31.63430079
 H    184.14536653    100.13778914    -29.96403610
 H    183.64993662    101.71270010    -29.29885090
 H    183.90139993    102.61283786    -31.68942856
 H    184.74482295    101.08759482    -32.05072886
 H    186.29449850    101.67503630    -30.09068766
 H    185.57863718    103.30304187    -30.16422066
 H    186.27028594    103.31301859    -32.63603493
 H    187.25939859    101.88582682    -32.24482337
 H    188.32776054    103.33574950    -30.41597940
 H    187.54793479    104.71925783    -31.21974749
 H    188.73895428    103.93577485    -33.35421940
 H    189.70724015    102.88780670    -32.29005217
 H    190.28211077    105.02413438    -30.98852572
 H    189.60690471    105.91187019    -32.37571301
 H    191.26188142    104.58193862    -33.81816835
 H    192.04676947    104.12252784    -32.28808366
 H    192.20945601    106.63915456    -31.81010212
 H    191.78763502    106.87375970    -33.52337214
 H    193.78326530    105.34790766    -34.05022952
 H    194.25692661    105.57489410    -32.34952708
 H    194.16681879    108.09367157    -32.83530884
 H    194.09914805    107.64151430    -34.55555334
 H    196.24759618    106.30738432    -34.11667853
 H    196.34115938    107.18857949    -32.57297919
 H    196.20553527    109.33095201    -33.98017121
 H    196.52569113    108.28849810    -35.38696073
 H    198.61017223    107.49741361    -34.11516389
 H    198.32677018    108.87669841    -33.02634647
 H    198.36153027    110.33541490    -35.13804750
 H    199.02972081    108.91095351    -35.97033220
 H    200.84556763    108.91136564    -34.15620888
 H    200.25974396    110.53826486    -33.73398120
 H    200.64851185    111.13558326    -36.19983066
 H    201.55901486    109.60976950    -36.30539258
 H    202.95244916    110.50019146    -34.34227443
 H    202.19603702    112.07732283    -34.67206827
 H    203.05537451    111.79868085    -37.07461714
 H    204.05656508    110.47136961    -36.43890573
 H    204.95382872    112.18171476    -34.74834939
 H    204.19097687    113.42112383    -35.77313662
 H    205.54830294    112.41789756    -37.70692727
 H    206.47137670    111.55134022    -36.45581581
 H    206.89270410    113.85619899    -35.40774491
 H    206.28878119    114.53390805    -36.93884067
 H    208.07717792    113.09473588    -38.08721514
 H    208.76812860    112.86390048    -36.46315577
 H    208.82391362    115.42524105    -36.30578412
 H    208.51418146    115.42367857    -38.05859051
 H    210.58507062    113.91978273    -38.25367690
 H    210.93386444    114.37920870    -36.56977152
 H    210.80374779    116.81041238    -37.38258246
 H    210.86773788    116.14068526    -39.03050161
 H    213.01902704    114.95554896    -38.28501504
 H    212.98044700    116.02901544    -36.86570254