602
Step 1 E=        80.4060
 C      0.00000000      0.00000000      0.00000000
 C      1.54000000      0.00000000      0.00000000
 C      2.16637443      1.40686000      0.00000000
 C      3.66258126      1.42635798      0.36412216
 C      4.37444288      2.74721905      0.01745361
 C      5.74756620      2.91509470      0.69417372
 C      6.61420783      4.03231159      0.08396170
 C      7.80827375      4.44933657      0.96253826
 C      8.86966735      5.28384156      0.22183248
 C      9.86262187      6.00358967      1.15328510
 C     11.12184635      6.52987085      0.43985548
 C     11.92973321      7.54856924      1.26518717
 C     13.35239120      7.79950336      0.73163652
 C     14.02631261      9.05674727      1.31195340
 C     15.54704658      9.11737171      1.07680900
 C     16.16348261     10.50756727      1.31963181
 C     17.69835589     10.49897091      1.44489208
 C     18.34467642     11.89133844      1.32167505
 C     19.80707386     11.94772305      1.80106479
 C     20.56498756     13.21107141      1.35260327
 C     21.88202353     13.45432906      2.11276245
 C     22.81209933     14.48190799      1.44146478
 C     23.93842489     14.99853024      2.35584554
 C     25.06861801     15.72825267      1.60633323
 C     25.99501164     16.55294604      2.51917259
 C     27.31536789     16.97914964      1.85088383
 C     28.07048235     18.08826088      2.60671081
 C     29.53502382     18.26278069      2.16369712
 C     30.17995830     19.57877757      2.63678453
 C     31.71539320     19.60112660      2.52042224
 C     32.33211895     21.00728535      2.63860394
 C     33.85172575     21.00580319      2.88838985
 C     34.52755776     22.36832012      2.64673158
 C     35.94761331     22.47586089      3.23280087
 C     36.75866971     23.66919963      2.69453500
 C     38.01430947     23.99796456      3.52331870
 C     39.01109206     24.92863720      2.80786575
 C     40.06859774     25.54891971      3.73981603
 C     41.26642507     26.17319671      3.00016211
 C     42.12961209     27.10006633      3.87618771
 C     43.50571763     27.43226051      3.26990347
 C     44.21521237     28.62270814      3.94150726
 C     45.71305728     28.73246331      3.60089833
 C     46.33860095     30.09354870      3.95830802
 C     47.87858458     30.09264660      3.96535159
 C     48.50582173     31.49910458      3.95831454
 C     50.00036084     31.52028944      4.32912992
 C     50.71461523     32.83825962      3.97643282
 C     52.08473541     33.01009158      4.65822785
 C     52.95484660     34.12247638      4.04413780
 C     54.14514286     34.54497762      4.92520961
 C     55.21042553     35.37362468      4.18351096
 C     56.19955798     36.09933160      5.11440648
 C     57.46235432     36.61983871      4.40305723
 C     58.26709074     37.64384965      5.22488500
 C     59.69232674     37.89018739      4.69609386
 C     60.36436615     39.15109120      5.27062377
 C     61.88619591     39.20916765      5.04201642
 C     62.50237489     40.60067715      5.27786546
 C     64.03665416     40.59206388      5.41020194
 C     64.68439129     41.98315048      5.28014543
 C     66.14461744     42.04205247      5.76581008
 C     66.90535303     43.30176768      5.31193901
 C     68.21905177     43.54960010      6.07638308
 C     69.15282018     44.57188191      5.40213056
 C     70.27527475     45.09426972      6.31799448
 C     71.40933169     45.81803453      5.56854179
 C     72.33205387     46.64859202      6.47978162
 C     73.65571321     47.06930608      5.81455563
 C     74.40805127     48.18326913      6.56600340
 C     75.87470937     48.35380741      6.12847544
 C     76.51828845     49.67272470      6.59523355
 C     78.05425256     49.69335443      6.48574076
 C     78.67130067     51.09994895      6.59684204
 C     80.18974899     51.09933545      6.85357989
 C     80.86752005     52.45972094      6.60543139
 C     82.28494891     52.57055375      7.19721811
 C     83.09919374     53.75959765      6.65428167
 C     84.35123617     54.09345437      7.48646520
 C     85.35185255     55.01848233      6.76904612
 C     86.40547174     55.64469183      7.70143459
 C     87.60705197     56.26304363      6.96289143
 C     88.46679958     57.19555264      7.83631057
 C     89.84586619     57.52266355      7.23400356
 C     90.55302013     58.71739467      7.90044999
 C     92.05247336     58.82387145      7.56593134
 C     92.67721828     60.18707299      7.91660976
 C     94.21715279     60.18531842      7.93070294
 C     94.84528457     61.59132433      7.91663586
 C     96.33812643     61.61424413      8.29412472
 C     97.05479934     62.92927966      7.93543056
 C     98.42189567     63.10510532      8.62225875
 C     99.29549111     64.21262881      8.00434069
 C    100.48200973     64.64062594      8.88785188
 C    101.55118235     65.46340596      8.14521942
 C    102.53649900     66.19506985      9.07549842
 C    103.80285408     66.70981560      8.36628645
 C    104.60445939     67.73911613      9.18455862
 C    106.03224879     67.98088959      8.66057098
 C    106.70243491     69.24541358      9.22927975
 C    108.22532900     69.30098749      9.00723215
 C    108.84128362     70.69376194      9.23609724
 C    110.37493654     70.68518194      9.37550710
 C    111.02412071     72.07493864      9.23862685
 C    112.48214848     72.13640340      9.73053852
 C    113.24572841     73.39244581      9.27129658
 C    114.55607319     73.64488502     10.03997793
 C    115.49354441     74.66184687      9.36282484
 C    116.61212481     75.19001280     10.28011359
 C    117.75004159     75.90781829      9.53078010
 C    118.66910328     76.74423065     10.44036240
 C    119.99604830     77.15947494      9.77825281
 C    120.74563299     78.27826049     10.52527470
 C    122.21438017     78.44485471     10.09326997
 C    122.85663459     79.76664857     10.55367225
 C    124.39309544     79.78560710     10.45106323
 C    125.01049853     81.19258733     10.55508276
 C    126.52775716     81.19289208     10.81876088
 C    127.20749560     82.55109938     10.56414625
 C    128.62227370     82.66526594     11.16161502
 C    129.43972561     83.84998033     10.61405299
 C    130.68815837     84.18895477     11.44958394
 C    131.69261400     85.10832211     10.73025605
 C    132.74234839     85.74046381     11.66302321
 C    133.94767275     86.35289618     10.92564964
 C    134.80399636     87.29102811     11.79640698
 C    136.18600271     87.61308214     11.19812638
 C    136.89084209     88.81206171     11.85937478
 C    138.39187376     88.91530211     11.53097662
 C    139.01585202     90.28057282     11.87490547
 C    140.55570467     90.27801547     11.89605377
 C    141.18476290     91.68351929     11.87496419
 C    142.67587812     91.70822198     12.25910632
 C    143.39499510     93.02027929     11.89444704
 C    144.75904708     93.20013575     12.58626627
 C    145.63614122     94.30276906     11.96457049
 C    146.81887450     94.73628135     12.85046500
 C    147.89193766     95.55318560     12.10695785
 C    148.87344505     96.29080422     13.03656099
 C    150.14334552     96.79980170     12.32954305
 C    150.94183927     97.83436850     13.14420818
 C    152.37215726     98.07161013     12.62506768
 C    153.04051896     99.33971429     13.18792155
 C    154.56444585     99.39283129     12.97245597
 C    155.18020879    100.78682162     13.19432743
 C    156.71320307    100.77832505     13.34080731
 C    157.36386462    102.16670301     13.19711954
 C    158.81966708    102.23077574     13.69524992
 C    159.58611359    103.48310596     13.23067616
 C    160.89308794    103.74018364     14.00354687
 C    161.83427189    104.75180308     13.32354769
 C    162.94897522    105.28575929     14.24220283
 C    164.09074756    105.99760418     13.49304814
 C    165.00616001    106.83986174     14.40091502
 C    166.33637304    107.24965641     13.74197525
 C    167.08322759    108.37323478     14.48452486
 C    168.55403616    108.53592271     14.05808050
 C    169.19499675    109.86054908     14.51210085
 C    170.73192186    109.87788465     14.41638940
 C    171.34971252    111.28520051     14.51332634
 C    172.86575033    111.28647306     14.78393259
 C    173.54748432    112.64245551     14.52287639
 C    174.95958779    112.75999730     15.12599140
 C    175.78026521    113.94034786     14.57384908
 C    177.02507620    114.28446558     15.41267481
 C    178.03337625    115.19815674     14.69149560
 C    179.07922783    115.83623543     15.62458190
 C    180.28828727    116.44275457     14.88843666
 C    181.14120257    117.38649253     15.75647706
 C    182.52612709    117.70351645     15.16227178
 C    183.22867832    118.90670911     15.81828184
 C    184.73125845    119.00675539     15.49603395
 C    185.35450216    120.37404813     15.83319539
 C    186.89424023    120.37073776     15.86140385
 C    187.52425668    121.77568951     15.83329978
 C    189.01361597    121.80222290     16.22407450
 C    189.73520242    123.11125862     15.85348245
 C    191.09618976    123.29518272     16.55025026
 C    191.97679681    124.39289732     15.92482730
 C    193.15573730    124.83194362     16.81304894
 C    194.23269133    125.64296382     16.06872626
 C    195.21039627    126.38653449     16.99759423
 C    196.48382851    126.88979723     16.29282692
 C    197.27923046    127.92960658     17.10383385
 C    198.71205207    128.16234914     16.58958377
 C    199.37861833    129.43399323     17.14654941
 C    200.90354642    129.48469912     16.93768763
 C    201.51915040    130.87985617     17.15255626
 C    203.05145378    130.87149320     17.30610232
 C    203.70362297    132.25844364     17.15562372
 C    205.15717333    132.32516938     17.65994407
 C    205.92650846    133.57374827     17.19007791
 C    207.23009613    133.83549578     17.96708977
 C    208.17500248    134.84175073     17.28429919
 C    209.28582611    135.38150896     18.20426219
 C    210.43144948    136.08739241     17.45534588
 C    211.34322416    136.93548507     18.36143956
 C    212.67668732    137.33985067     17.70572280
 C    213.42083517    138.46819185     18.44375407
 C    214.89367728    138.62701153     18.02290680
 H     -0.36333333      0.00000000      1.02766186
 H     -0.36333333     -0.88998127     -0.51383093
 H     -0.36333333      0.88998127     -0.51383093
 H      1.88274777     -0.52778528     -0.88998127
 H      1.88274777     -0.52778528      0.88998127
 H      1.62962592      2.02101998      0.72305501
 H      2.05048553      1.83364121     -0.99625678
 H      4.15717254      0.61860736     -0.17533905
 H      3.75648615      1.25769264      1.43689142
 H      3.73528646      3.57318737      0.32947188
 H      4.51745299      2.78633854     -1.06241572
 H      6.29022101      1.97384542      0.60656354
 H      5.58492586      3.14405090      1.74737226
 H      5.98363611      4.90706985     -0.07502660
 H      6.99911231      3.68290906     -0.87409175
 H      8.28610715      3.54634474      1.34251327
 H      7.42998472      5.03909210      1.79751480
 H      8.35704665      6.03512878     -0.37890668
 H      9.43363806      4.61865673     -0.43205296
 H     10.17502842      5.30336409      1.92800201
 H      9.35043231      6.84897395      1.61272744
 H     10.81419884      7.00881589     -0.48969531
 H     11.76813359      5.68146395      0.21486982
 H     12.00744527      7.17720748      2.28702438
 H     11.39075684      8.49598644      1.26292277
 H     13.29790978      7.90882650     -0.35149793
 H     13.96865155      6.93514349      0.97903338
 H     13.84452212      9.07804827      2.38647585
 H     13.57273755      9.93327282      0.84927359
 H     15.74596536      8.82981289      0.04441313
 H     16.02662478      8.40735002      1.75058489
 H     15.74654059     10.91094553      2.24242395
 H     15.89131889     11.15370606      0.48504715
 H     18.10290589      9.86245378      0.65794529
 H     17.96048921     10.08434135      2.41827199
 H     17.76148007     12.59382929      1.91706452
 H     18.31556825     12.19123888      0.27414823
 H     20.33053216     11.07627652      1.40778074
 H     19.81219144     11.91358169      2.89051795
 H     19.91592862     14.07304752      1.50693953
 H     20.79453568     13.11447190      0.29143590
 H     22.41514170     12.50648610      2.18678091
 H     21.63924254     13.81369382      3.11276963
 H     22.21004628     15.33352976      1.12464863
 H     23.26690569     14.01365826      0.56854246
 H     24.37012457     14.14729605      2.88228237
 H     23.50382338     15.68987485      3.07783180
 H     24.61753472     16.40164202      0.87751868
 H     25.67261256     14.98360640      1.08788120
 H     26.23342677     15.95302465      3.39743937
 H     25.46100537     17.45185529      2.82723015
 H     27.09061914     17.34019209      0.84727217
 H     27.96421896     16.10571990      1.78597790
 H     28.06036193     17.84674864      3.66956988
 H     27.54831792     19.03099937      2.44334486
 H     29.56909848     18.23653149      1.07454612
 H     30.11590230     17.43257680      2.56549518
 H     29.91313289     19.73487527      3.68202982
 H     29.77863904     20.39330709      2.03380483
 H     31.99174971     19.18600797      1.55119388
 H     32.12834646     18.97796934      3.31367166
 H     31.84904825     21.52487213      3.46736604
 H     32.13775576     21.54585503      1.71109887
 H     34.30792562     20.27390321      2.22182845
 H     34.02861219     20.71429128      3.92368304
 H     33.90966611     23.14279613      3.10115079
 H     34.58705663     22.53545584      1.57126631
 H     36.48714927     21.55927739      2.99431476
 H     35.86501091     22.57776747      4.31487845
 H     36.11292140     24.54730095      2.68766563
 H     37.07084604     23.43979020      1.67570368
 H     38.52488742     23.06378108      3.75722335
 H     37.69795270     24.48053520      4.44805865
 H     38.44972840     25.73746954      2.34014673
 H     39.52689503     24.35269132      2.03953402
 H     40.44340923     24.76755386      4.40093913
 H     39.58850256     26.32728850      4.33290173
 H     40.88570191     26.75298784      2.15933388
 H     41.89822967     25.36636957      2.62874198
 H     42.28756775     26.61298656      4.83842641
 H     41.58681240     28.03333257      4.02612978
 H     43.36767101     27.66662682      2.21438674
 H     44.14392399     26.55394450      3.36661763
 H     44.11630310     28.51563454      5.02171659
 H     43.72262055     29.54062798      3.62076364
 H     45.83375157     28.57045707      2.52978356
 H     46.24685277     27.95559336      4.14828801
 H     45.99147711     30.38021454      4.95099515
 H     45.99961821     30.82878545      3.22850145
 H     48.22506933     29.55840730      3.08068404
 H     48.21693577     29.57094015      4.86058388
 H     47.96615443     32.11865472      4.67456648
 H     48.39475020     31.91892830      2.95855899
 H     50.49691278     30.70847087      3.79763506
 H     50.08925847     31.35912674      5.40347800
 H     50.07455025     33.66677868      4.27970333
 H     50.86258247     32.86969093      2.89698028
 H     52.62720313     32.06793105      4.57972754
 H     51.91742568     33.24655299      5.70903394
 H     52.32554864     34.99646273      3.87611419
 H     53.34390891     33.76611138      3.09033777
 H     54.62067686     33.64440386      5.31371227
 H     53.76340686     35.14081915      5.75427564
 H     54.70101963     36.12096357      3.57516057
 H     55.77696713     34.70352204      3.53690980
 H     56.50798842     35.40439533      5.89545338
 H     55.68579685     36.94822978      5.56553991
 H     57.15925365     37.09240697      3.46876112
 H     58.10913848     35.76949027      4.18700681
 H     58.33990319     37.27964647      6.24965540
 H     57.72871592     38.59154298      5.21348730
 H     59.64286285     37.99191328      3.61197894
 H     60.30691592     37.02723004      4.95238427
 H     60.17768070     39.18006395      6.34412697
 H     59.91345179     40.02460281      4.79971645
 H     62.08965242     38.91423031      4.01259065
 H     62.36225142     38.50362686      5.72295940
 H     62.08146986     41.01078702      6.19587899
 H     62.23442699     41.24108287      4.43751765
 H     64.44440248     39.94978472      4.62961320
 H     64.29408060     40.18414476      6.38766479
 H     64.09891461     42.69015760      5.86790217
 H     64.66025543     42.27568477      4.23041159
 H     66.66932878     41.16755192      5.38106757
 H     66.14473560     42.01557988      6.85548855
 H     66.25612842     44.16518917      5.45723434
 H     67.13968804     43.19756436      4.25253882
 H     68.75124031     42.60198968      6.15950850
 H     67.97192588     43.91613923      7.07271529
 H     68.55274749     45.42160437      5.07657795
 H     69.61132118     44.09723115      4.53461486
 H     70.70403825     44.24651058      6.85237852
 H     69.83780595     45.79093520      7.03310165
 H     70.96199966     46.48653966      4.83295023
 H     72.01522873     45.06940257      5.05811160
 H     72.56608249     46.05472989      7.36333036
 H     71.79720109     47.54996070      6.77905911
 H     73.43577598     47.42340466      4.80741025
 H     74.30431423     46.19506105      5.75876715
 H     74.39292496     47.94925253      7.63047859
 H     73.88722147     49.12513970      6.39361967
 H     75.91374434     48.31987011      5.03970341
 H     76.45323263     47.52611306      6.53875938
 H     76.24678607     49.83633445      7.63812296
 H     76.12023212     50.48322334      5.98470664
 H     78.33477850     49.27125988      5.52073226
 H     78.46319157     49.07555616      7.28523695
 H     78.18476791     51.62364116      7.41972256
 H     78.48151060     51.63208841      5.66469006
 H     80.64853758     50.36249320      6.19427987
 H     80.36172262     50.81501676      7.89169739
 H     80.24803709     53.23773917      7.05155750
 H     80.93203593     52.61924521      5.52909979
 H     82.82500250     51.65199789      6.96765931
 H     82.19746579     52.68012516      8.27816252
 H     82.45402631     54.63800694      6.63827869
 H     83.41588054     53.52283741      5.63852872
 H     84.86016258     53.16064206      7.72927195
 H     84.03095537     54.58270944      8.40632915
 H     84.79313194     55.82433008      6.29308322
 H     85.87080503     54.43683881      6.00715430
 H     86.77677539     54.86778094      8.36974819
 H     85.92315255     56.42749838      8.28682516
 H     87.23053332     56.83712298      6.11627073
 H     88.24004848     55.45325134      6.60005281
 H     88.62005560     56.71516769      8.80266604
 H     87.92389721     58.13016930      7.97719610
 H     89.71278906     57.74967291      6.17624308
 H     90.48308106     56.64467659      7.33981518
 H     90.44910972     58.61798752      8.98092250
 H     90.06246643     59.63332177      7.57100406
 H     92.17796073     58.65425676      6.49654657
 H     92.58328180     58.05056242      8.12121104
 H     92.32573918     60.48092459      8.90565661
 H     92.34202836     60.91735133      7.18010365
 H     94.56734623     59.64466049      7.05141143
 H     94.55108722     59.66973019      8.83112315
 H     94.30273294     62.21621831      8.62603366
 H     94.73904206     62.00416328      6.91345266
 H     96.83660010     60.79841267      7.77063352
 H     96.42201428     61.46059795      9.36997586
 H     96.41386736     63.76028832      8.22993151
 H     97.20771700     62.95302301      6.85647160
 H     98.96413411     62.16209781      8.55287355
 H     98.24993216     63.34905763      9.67059831
 H     98.66750771     65.08577891      7.82729335
 H     99.68868746     63.84932903      7.05486194
 H    100.95520689     63.74253159      9.28485435
 H    100.09685757     65.24251373      9.71094902
 H    101.04502355     66.20674115      7.52930055
 H    102.12025848     64.78843541      7.50594865
 H    102.84092772     65.50546967      9.86281967
 H    102.02120645     67.04742425      9.51829133
 H    103.50431794     67.17597117      7.42731087
 H    104.45009313     65.85758829      8.15918690
 H    104.67236331     67.38209487     10.21218933
 H    104.06672801     68.68702092      9.16402876
 H    105.98780216     68.07500859      7.57555204
 H    106.64512703     67.11939834      8.92573711
 H    106.51086397     69.28205357     10.30168736
 H    106.25421696     70.11585183      8.75017859
 H    108.43330507     68.99869007      7.98084908
 H    108.69783188     68.59998002      9.69529433
 H    108.41644162     71.11057194     10.14926684
 H    108.57757429     71.32839169      8.39004614
 H    110.78585054     70.03718377      8.60133137
 H    110.62764163     70.28400459     10.35698398
 H    110.43640139     72.78640952      9.81870892
 H    111.00496266     72.36008852      8.18676064
 H    113.00807192     71.25890832      9.35436448
 H    112.47727098     72.11760391     10.82036547
 H    112.59638033     74.25724908      9.40754036
 H    113.48483748     73.28064851      8.21373892
 H    115.08729065     72.69757180     10.13220410
 H    114.30462369     74.01857501     11.03256492
 H    114.89549082     75.50960740      9.02855850
 H    115.95571135     74.18083115      8.50077751
 H    117.03791800     74.34578630     10.82240666
 H    116.17182348     75.89195228     10.98829134
 H    117.30648871     76.57138943      8.78846332
 H    118.35780198     75.15525613      9.02840823
 H    118.89872505     76.15646739     11.32913020
 H    118.13344565     77.64799737     10.73083895
 H    119.78093439     77.50660214      8.76764472
 H    120.64435710     76.28447899      9.73158606
 H    120.72549810     78.05175363     11.59129028
 H    120.22617847     79.21919887     10.34388570
 H    122.25836892     78.40322927      9.00495370
 H    122.79051100     77.61973097     10.51201106
 H    122.58047070     79.93775633     11.59413159
 H    122.46187316     80.57306138      9.93564168
 H    124.67776718     79.35656407      9.49034262
 H    124.79799503     79.17321401     11.25674991
 H    124.52053440     81.72234543     11.37202309
 H    124.82529881     81.71826134      9.61835019
 H    126.98909822     80.45115730     10.16676860
 H    126.69480958     80.91578922     11.85962951
 H    126.58646143     83.33260226     11.00194735
 H    127.27702768     82.70300334      9.48702487
 H    129.16280289     81.74480031     10.94099946
 H    128.52991984     82.78249686     12.24135002
 H    128.79518099     84.72863295     10.58891721
 H    129.76090424     83.60588850      9.60145066
 H    131.19539341     83.25757725     11.70127527
 H    130.36397998     84.68486207     12.36450707
 H    131.13657222     85.91112573     10.24608266
 H    132.21468300     84.52102458      9.97485843
 H    133.11011413     84.96806045     12.33847966
 H    132.25784312     86.52765512     12.24067750
 H    133.57538150     86.92122064     10.07329611
 H    134.58182011     85.54019854     10.57141855
 H    134.95253813     86.81736955     12.76681046
 H    134.26103355     88.22693144     11.92822631
 H    136.05790073     87.83271602     10.13819674
 H    136.82218474     86.73548886     11.31302829
 H    136.78193412     88.72032559     12.94003362
 H    136.40236502     89.72593364     11.52125020
 H    138.52214155     88.73808854     10.46339728
 H    138.91966133     88.14561122     12.09410735
 H    138.66003878     90.58158692     12.86024168
 H    138.68448241     91.00584349     11.13175229
 H    140.90957822     89.73097474     11.02220026
 H    140.88520246     89.76858442     12.80159848
 H    140.63936160     92.31371041     12.57745730
 H    141.08336070     92.08934669     10.86842471
 H    143.17623444     90.88843295     11.74365554
 H    142.75475401     91.56210564     13.33638465
 H    142.75323774     93.85371625     12.18015724
 H    143.55285613     93.03633543     10.81605838
 H    145.30101408     92.25634560     12.52600077
 H    144.58244575     93.45156414     13.63206537
 H    145.00951309     95.17501862     11.77851163
 H    146.03344755     93.93256267     11.01948059
 H    147.28969754     93.84072754     13.25593886
 H    146.43033721     95.34417521     13.66753528
 H    147.38905804     96.29246201     11.48351380
 H    148.46351179     94.87339739     11.47506307
 H    149.17384671     95.60658651     13.83010051
 H    148.35666136     97.14655693     13.47098234
 H    149.84939128     97.25950912     11.38595416
 H    150.79099739     95.94575833     12.13140935
 H    151.00482606     97.48455200     14.17462610
 H    150.40479317     98.78242006     13.11454795
 H    152.33272728     98.15811312     11.53922124
 H    152.98328494     97.21164842     12.89909107
 H    152.84407231     99.38401648     14.25915730
 H    152.59503292    100.20701998     12.70066081
 H    154.77692297     99.08319275     11.94918795
 H    155.03336640     98.69640923     13.66758893
 H    154.75145614    101.21029977     14.10258809
 H    154.92076049    101.41563290     12.34263326
 H    157.12724987    100.12465133     12.57309909
 H    156.96117269    100.38392033     14.32622904
 H    156.77394052    102.88258479     13.76948552
 H    157.34968951    102.44445073     12.14319579
 H    159.34676161    101.35034582     13.32767067
 H    158.80979804    102.21965313     14.78514849
 H    158.93668426    104.34922732     13.35785842
 H    159.82998355    103.36372504     12.17503624
 H    161.42329292    102.79323226     14.10486694
 H    160.63733639    104.12100047     14.99231867
 H    161.23827597    105.59753917     12.98059096
 H    162.30007580    104.26445889     12.46703011
 H    163.37176416    104.44512276     14.79236620
 H    162.50587631    105.99292549     14.94340133
 H    163.65100149    106.65619187     12.74405839
 H    164.70033204    105.24116756     12.99877049
 H    165.23135488    106.25823651     15.29483860
 H    164.46973922    107.74596494     14.68257037
 H    166.12609391    107.58978519     12.72797569
 H    166.98434748    106.37397395     13.70443384
 H    167.05808177    108.15425126     15.55200503
 H    166.56518892    109.31317678     14.29414378
 H    168.60297179    108.48660963     12.97029673
 H    169.12773753    107.71343047     14.48524939
 H    168.91418714    110.03914029     15.55005613
 H    168.80356195    110.66282142     13.88661073
 H    171.02071547    109.44192107     13.46002440
 H    171.13275711    109.27094256     15.22820982
 H    170.85634795    111.82098453     15.32426831
 H    171.16912002    111.80437428     13.57207985
 H    173.32960741    110.53989582     14.13929391
 H    173.02787347    111.01660809     15.82747894
 H    172.92493916    113.42738527     14.95232113
 H    173.62203146    112.78673087     13.44504182
 H    175.50055053    111.83768465     14.91433440
 H    174.86237349    112.88488190     16.20444085
 H    175.13638526    114.81917912     14.53958197
 H    176.10591668    113.68894418     13.56446942
 H    177.53058019    113.35458635     15.67323257
 H    176.69702695    114.78699243     16.32259264
 H    177.48004892    115.99785694     14.19914568
 H    178.55852858    114.60524924     13.94264599
 H    179.44342584    115.06839187     16.30713305
 H    178.59257457    116.62775822     16.19445933
 H    179.92024603    117.00528144     14.03041034
 H    180.92354434    115.62721158     14.54283851
 H    181.28501578    116.91959147     16.73085951
 H    180.59822153    118.32361871     15.87922119
 H    182.40300556    117.91575684     14.10024772
 H    183.16123500    116.82638144     15.28625616
 H    183.11477673    118.82264807     16.89905016
 H    182.74231624    119.81846361     15.47150287
 H    184.86629366    118.82195303     14.43033532
 H    185.25599153    118.24073959     16.06697614
 H    184.99437621    120.68220098     16.81475085
 H    185.02698012    121.09426222     15.08344811
 H    187.25176505    119.81735052     14.99304991
 H    187.21928180    119.86750241     16.77200924
 H    186.97604056    122.41113069     16.52883813
 H    187.42770574    122.17447906     14.82347563
 H    189.51581573    120.97853190     15.71670033
 H    189.08747809    121.66364919     17.30270406
 H    189.09266135    123.94706241     16.13038135
 H    189.89799941    123.11962889     14.77574079
 H    191.63784316    122.35067432     16.49910840
 H    190.91496690    123.55407182     17.59343515
 H    191.35156455    125.26418212     15.72976978
 H    192.37818874    124.01581300     14.98419351
 H    193.62414910    123.93899134     17.22696513
 H    192.76384619    125.44580295     17.62403480
 H    193.73312274    126.37812664     15.43780087
 H    194.80672676    124.95840855     15.44425255
 H    195.50674583    125.70774526     17.79729550
 H    194.69216180    127.24562735     17.42361357
 H    196.19447321    127.34302148     15.34469123
 H    197.13185111    126.03400072     16.10367343
 H    197.33729190    127.58701716     18.13696567
 H    196.74291147    128.87774023     17.06504565
 H    198.67763775    128.24122754     15.50298640
 H    199.32138968    127.30398033     16.87244534
 H    199.17730612    129.48595204     18.21653711
 H    198.93589954    130.29810739     16.65116392
 H    201.12050578    129.16773894     15.91760681
 H    201.36885521    128.79291424     17.63984247
 H    201.08651369    131.30997003     18.05584334
 H    201.26398526    131.50280689     16.29527967
 H    203.46860030    130.21218776     16.54491565
 H    203.29467415    130.48389150     18.29539943
 H    203.11153209    132.97868319     17.72023277
 H    203.69443556    132.52877198     16.09971739
 H    205.68539785    131.44186452     17.30098532
 H    205.14231722    132.32172687     18.74983739
 H    205.27704009    134.44112393     17.30818932
 H    206.17512581    133.44679465     16.13643082
 H    207.75924732    132.88897086     18.07749625
 H    206.97006442    134.22341493     18.95197669