302
Step 1 E=        -5.0531
 C      0.00000000      0.00000000      0.00000000
 C      1.54000000      0.00000000      0.00000000
 C      2.16637443      1.40686000      0.00000000
 C      3.70637443      1.40686000      0.00000000
 C      4.33274886      2.81372001      0.00000000
 C      5.87274886      2.81372001      0.00000000
 C      6.49912329      4.22058001      0.00000000
 C      8.03912329      4.22058001      0.00000000
 C      8.66549772      5.62744002      0.00000000
 C     10.20549772      5.62744002      0.00000000
 C     10.83187215      7.03430002      0.00000000
 C     12.37187215      7.03430002      0.00000000
 C     12.99824658      8.44116003      0.00000000
 C     14.53824658      8.44116003      0.00000000
 C     15.16462101      9.84802003      0.00000000
 C     16.70462101      9.84802003      0.00000000
 C     17.33099544     11.25488004      0.00000000
 C     18.87099544     11.25488004      0.00000000
 C     19.49736987     12.66174004      0.00000000
 C     21.03736987     12.66174004      0.00000000
 C     21.66374430     14.06860005      0.00000000
 C     23.20374430     14.06860005      0.00000000
 C     23.83011873     15.47546005      0.00000000
 C     25.37011873     15.47546005      0.00000000
 C     25.99649316     16.88232006      0.00000000
 C     27.53649316     16.88232006      0.00000000
 C     28.16286759     18.28918006      0.00000000
 C     29.70286759     18.28918006      0.00000000
 C     30.32924202     19.69604007      0.00000000
 C     31.86924202     19.69604007      0.00000000
 C     32.49561646     21.10290007      0.00000000
 C     34.03561646     21.10290007      0.00000000
 C     34.66199089     22.50976008      0.00000000
 C     36.20199089     22.50976008      0.00000000
 C     36.82836532     23.91662008      0.00000000
 C     38.36836532     23.91662008      0.00000000
 C     38.99473975     25.32348009      0.00000000
 C     40.53473975     25.32348009      0.00000000
 C     41.16111418     26.73034009      0.00000000
 C     42.70111418     26.73034009      0.00000000
 C     43.32748861     28.13720010      0.00000000
 C     44.86748861     28.13720010      0.00000000
 C     45.49386304     29.54406010      0.00000000
 C     47.03386304     29.54406010      0.00000000
 C     47.66023747     30.95092010      0.00000000
 C     49.20023747     30.95092010      0.00000000
 C     49.82661190     32.35778011      0.00000000
 C     51.36661190     32.35778011      0.00000000
 C     51.99298633     33.76464011      0.00000000
 C     53.53298633     33.76464011      0.00000000
 C     54.15936076     35.17150012      0.00000000
 C     55.69936076     35.17150012      0.00000000
 C     56.32573519     36.57836012      0.00000000
 C     57.86573519     36.57836012      0.00000000
 C     58.49210962     37.98522013      0.00000000
 C     60.03210962     37.98522013      0.00000000
 C     60.65848405     39.39208013      0.00000000
 C     62.19848405     39.39208013      0.00000000
 C     62.82485848     40.79894014      0.00000000
 C     64.36485848     40.79894014      0.00000000
 C     64.99123291     42.20580014      0.00000000
 C     66.53123291     42.20580014      0.00000000
 C     67.15760734     43.61266015      0.00000000
 C     68.69760734     43.61266015      0.00000000
 C     69.32398177     45.01952015      0.00000000
 C     70.86398177     45.01952015      0.00000000
 C     71.49035620     46.42638016      0.00000000
 C     73.03035620     46.42638016      0.00000000
 C     73.65673063     47.83324016      0.00000000
 C     75.19673063     47.83324016      0.00000000
 C     75.82310506     49.24010017      0.00000000
 C     77.36310506     49.24010017      0.00000000
 C     77.98947949     50.64696017      0.00000000
 C     79.52947949     50.64696017      0.00000000
 C     80.15585392     52.05382018      0.00000000
 C     81.69585392     52.05382018      0.00000000
 C     82.32222835     53.46068018      0.00000000
 C     83.86222835     53.46068018      0.00000000
 C     84.48860278     54.86754019      0.00000000
 C     86.02860278     54.86754019      0.00000000
 C     86.65497721     56.27440019      0.00000000
 C     88.19497721     56.27440019      0.00000000
 C     88.82135164     57.68126020      0.00000000
 C     90.36135164     57.68126020      0.00000000
 C     90.98772607     59.08812020      0.00000000
 C     92.52772607     59.08812020      0.00000000
 C     93.15410050     60.49498021      0.00000000
 C     94.69410050     60.49498021      0.00000000
 C     95.32047493     61.90184021      0.00000000
 C     96.86047493     61.90184021      0.00000000
 C     97.48684937     63.30870021      0.00000000
 C     99.02684937     63.30870021      0.00000000
 C     99.65322380     64.71556022      0.00000000
 C    101.19322380     64.71556022      0.00000000
 C    101.81959823     66.12242022      0.00000000
 C    103.35959823     66.12242022      0.00000000
 C    103.98597266     67.52928023      0.00000000
 C    105.52597266     67.52928023      0.00000000
 C    106.15234709     68.93614023      0.00000000
 C    107.69234709     68.93614023      0.00000000
 H     -0.36333333      0.00000000      1.02766186
 H     -0.36333333     -0.88998127     -0.51383093
 H     -0.36333333      0.88998127     -0.51383093
 H      1.88274777     -0.52778528     -0.88998127
 H      1.88274777     -0.52778528      0.88998127
 H      1.82362666      1.93464528      0.88998127
 H      1.82362666      1.93464528     -0.88998127
 H      4.04912220      0.87907473     -0.88998127
 H      4.04912220      0.87907473      0.88998127
 H      3.99000109      3.34150529      0.88998127
 H      3.99000109      3.34150529     -0.88998127
 H      6.21549663      2.28593473     -0.88998127
 H      6.21549663      2.28593473      0.88998127
 H      6.15637552      4.74836529      0.88998127
 H      6.15637552      4.74836529     -0.88998127
 H      8.38187106      3.69279473     -0.88998127
 H      8.38187106      3.69279473      0.88998127
 H      8.32274995      6.15522530      0.88998127
 H      8.32274995      6.15522530     -0.88998127
 H     10.54824549      5.09965474     -0.88998127
 H     10.54824549      5.09965474      0.88998127
 H     10.48912438      7.56208530      0.88998127
 H     10.48912438      7.56208530     -0.88998127
 H     12.71461992      6.50651474     -0.88998127
 H     12.71461992      6.50651474      0.88998127
 H     12.65549881      8.96894531      0.88998127
 H     12.65549881      8.96894531     -0.88998127
 H     14.88099435      7.91337475     -0.88998127
 H     14.88099435      7.91337475      0.88998127
 H     14.82187324     10.37580531      0.88998127
 H     14.82187324     10.37580531     -0.88998127
 H     17.04736878      9.32023475     -0.88998127
 H     17.04736878      9.32023475      0.88998127
 H     16.98824767     11.78266532      0.88998127
 H     16.98824767     11.78266532     -0.88998127
 H     19.21374321     10.72709476     -0.88998127
 H     19.21374321     10.72709476      0.88998127
 H     19.15462210     13.18952532      0.88998127
 H     19.15462210     13.18952532     -0.88998127
 H     21.38011764     12.13395476     -0.88998127
 H     21.38011764     12.13395476      0.88998127
 H     21.32099654     14.59638533      0.88998127
 H     21.32099654     14.59638533     -0.88998127
 H     23.54649207     13.54081477     -0.88998127
 H     23.54649207     13.54081477      0.88998127
 H     23.48737097     16.00324533      0.88998127
 H     23.48737097     16.00324533     -0.88998127
 H     25.71286650     14.94767477     -0.88998127
 H     25.71286650     14.94767477      0.88998127
 H     25.65374540     17.41010534      0.88998127
 H     25.65374540     17.41010534     -0.88998127
 H     27.87924093     16.35453478     -0.88998127
 H     27.87924093     16.35453478      0.88998127
 H     27.82011983     18.81696534      0.88998127
 H     27.82011983     18.81696534     -0.88998127
 H     30.04561536     17.76139478     -0.88998127
 H     30.04561536     17.76139478      0.88998127
 H     29.98649426     20.22382535      0.88998127
 H     29.98649426     20.22382535     -0.88998127
 H     32.21198979     19.16825479     -0.88998127
 H     32.21198979     19.16825479      0.88998127
 H     32.15286869     21.63068535      0.88998127
 H     32.15286869     21.63068535     -0.88998127
 H     34.37836422     20.57511479     -0.88998127
 H     34.37836422     20.57511479      0.88998127
 H     34.31924312     23.03754536      0.88998127
 H     34.31924312     23.03754536     -0.88998127
 H     36.54473865     21.98197480     -0.88998127
 H     36.54473865     21.98197480      0.88998127
 H     36.48561755     24.44440536      0.88998127
 H     36.48561755     24.44440536     -0.88998127
 H     38.71111308     23.38883480     -0.88998127
 H     38.71111308     23.38883480      0.88998127
 H     38.65199198     25.85126537      0.88998127
 H     38.65199198     25.85126537     -0.88998127
 H     40.87748751     24.79569481     -0.88998127
 H     40.87748751     24.79569481      0.88998127
 H     40.81836641     27.25812537      0.88998127
 H     40.81836641     27.25812537     -0.88998127
 H     43.04386194     26.20255481     -0.88998127
 H     43.04386194     26.20255481      0.88998127
 H     42.98474084     28.66498537      0.88998127
 H     42.98474084     28.66498537     -0.88998127
 H     45.21023637     27.60941482     -0.88998127
 H     45.21023637     27.60941482      0.88998127
 H     45.15111527     30.07184538      0.88998127
 H     45.15111527     30.07184538     -0.88998127
 H     47.37661081     29.01627482     -0.88998127
 H     47.37661081     29.01627482      0.88998127
 H     47.31748970     31.47870538      0.88998127
 H     47.31748970     31.47870538     -0.88998127
 H     49.54298524     30.42313483     -0.88998127
 H     49.54298524     30.42313483      0.88998127
 H     49.48386413     32.88556539      0.88998127
 H     49.48386413     32.88556539     -0.88998127
 H     51.70935967     31.82999483     -0.88998127
 H     51.70935967     31.82999483      0.88998127
 H     51.65023856     34.29242539      0.88998127
 H     51.65023856     34.29242539     -0.88998127
 H     53.87573410     33.23685484     -0.88998127
 H     53.87573410     33.23685484      0.88998127
 H     53.81661299     35.69928540      0.88998127
 H     53.81661299     35.69928540     -0.88998127
 H     56.04210853     34.64371484     -0.88998127
 H     56.04210853     34.64371484      0.88998127
 H     55.98298742     37.10614540      0.88998127
 H     55.98298742     37.10614540     -0.88998127
 H     58.20848296     36.05057484     -0.88998127
 H     58.20848296     36.05057484      0.88998127
 H     58.14936185     38.51300541      0.88998127
 H     58.14936185     38.51300541     -0.88998127
 H     60.37485739     37.45743485     -0.88998127
 H     60.37485739     37.45743485      0.88998127
 H     60.31573628     39.91986541      0.88998127
 H     60.31573628     39.91986541     -0.88998127
 H     62.54123182     38.86429485     -0.88998127
 H     62.54123182     38.86429485      0.88998127
 H     62.48211071     41.32672542      0.88998127
 H     62.48211071     41.32672542     -0.88998127
 H     64.70760625     40.27115486     -0.88998127
 H     64.70760625     40.27115486      0.88998127
 H     64.64848514     42.73358542      0.88998127
 H     64.64848514     42.73358542     -0.88998127
 H     66.87398068     41.67801486     -0.88998127
 H     66.87398068     41.67801486      0.88998127
 H     66.81485957     44.14044543      0.88998127
 H     66.81485957     44.14044543     -0.88998127
 H     69.04035511     43.08487487     -0.88998127
 H     69.04035511     43.08487487      0.88998127
 H     68.98123400     45.54730543      0.88998127
 H     68.98123400     45.54730543     -0.88998127
 H     71.20672954     44.49173487     -0.88998127
 H     71.20672954     44.49173487      0.88998127
 H     71.14760843     46.95416544      0.88998127
 H     71.14760843     46.95416544     -0.88998127
 H     73.37310397     45.89859488     -0.88998127
 H     73.37310397     45.89859488      0.88998127
 H     73.31398286     48.36102544      0.88998127
 H     73.31398286     48.36102544     -0.88998127
 H     75.53947840     47.30545488     -0.88998127
 H     75.53947840     47.30545488      0.88998127
 H     75.48035729     49.76788545      0.88998127
 H     75.48035729     49.76788545     -0.88998127
 H     77.70585283     48.71231489     -0.88998127
 H     77.70585283     48.71231489      0.88998127
 H     77.64673172     51.17474545      0.88998127
 H     77.64673172     51.17474545     -0.88998127
 H     79.87222726     50.11917489     -0.88998127
 H     79.87222726     50.11917489      0.88998127
 H     79.81310615     52.58160546      0.88998127
 H     79.81310615     52.58160546     -0.88998127
 H     82.03860169     51.52603490     -0.88998127
 H     82.03860169     51.52603490      0.88998127
 H     81.97948058     53.98846546      0.88998127
 H     81.97948058     53.98846546     -0.88998127
 H     84.20497612     52.93289490     -0.88998127
 H     84.20497612     52.93289490      0.88998127
 H     84.14585502     55.39532547      0.88998127
 H     84.14585502     55.39532547     -0.88998127
 H     86.37135055     54.33975491     -0.88998127
 H     86.37135055     54.33975491      0.88998127
 H     86.31222945     56.80218547      0.88998127
 H     86.31222945     56.80218547     -0.88998127
 H     88.53772498     55.74661491     -0.88998127
 H     88.53772498     55.74661491      0.88998127
 H     88.47860388     58.20904547      0.88998127
 H     88.47860388     58.20904547     -0.88998127
 H     90.70409941     57.15347492     -0.88998127
 H     90.70409941     57.15347492      0.88998127
 H     90.64497831     59.61590548      0.88998127
 H     90.64497831     59.61590548     -0.88998127
 H     92.87047384     58.56033492     -0.88998127
 H     92.87047384     58.56033492      0.88998127
 H     92.81135274     61.02276548      0.88998127
 H     92.81135274     61.02276548     -0.88998127
 H     95.03684827     59.96719493     -0.88998127
 H     95.03684827     59.96719493      0.88998127
 H     94.97772717     62.42962549      0.88998127
 H     94.97772717     62.42962549     -0.88998127
 H     97.20322270     61.37405493     -0.88998127
 H     97.20322270     61.37405493      0.88998127
 H     97.14410160     63.83648549      0.88998127
 H     97.14410160     63.83648549     -0.88998127
 H     99.36959713     62.78091494     -0.88998127
 H     99.36959713     62.78091494      0.88998127
 H     99.31047603     65.24334550      0.88998127
 H     99.31047603     65.24334550     -0.88998127
 H    101.53597156     64.18777494     -0.88998127
 H    101.53597156     64.18777494      0.88998127
 H    101.47685046     66.65020550      0.88998127
 H    101.47685046     66.65020550     -0.88998127
 H    103.70234599     65.59463494     -0.88998127
 H    103.70234599     65.59463494      0.88998127
 H    103.64322489     68.05706551      0.88998127
 H    103.64322489     68.05706551     -0.88998127
 H    105.86872042     67.00149495     -0.88998127
 H    105.86872042     67.00149495      0.88998127
 H    105.80959932     69.46392551      0.88998127
 H    105.80959932     69.46392551     -0.88998127
 H    108.05568042     68.93614023     -1.02766186
 H    108.05568042     68.04615896      0.51383093
 H    108.05568042     69.82612151      0.51383093
302
Step 10000 E=        40.1411
 C      0.00000000      0.00000000      0.00000000
 C      1.54000000      0.00000000      0.00000000
 C      2.16637443      0.56584366     -1.28805125
 C      3.59268597      1.11585676     -1.10171559
 C      4.15457986      1.83314877     -2.34323378
 C      4.71277488      3.23922675     -2.05520075
 C      6.15639945      3.24231456     -1.51897453
 C      6.79776898      4.64093151     -1.45482034
 C      8.29019014      4.62882468     -1.07517249
 C      9.20699673      4.02913979     -2.15750502
 C     10.71022901      4.20307563     -1.87177957
 C     11.61240783      3.96414482     -3.09676343
 C     13.11399178      3.88812094     -2.76349777
 C     14.01708497      3.66064691     -3.98998799
 C     15.40175910      3.07922374     -3.64907062
 C     16.46087706      3.29984514     -4.74506119
 C     17.82782585      2.66322611     -4.43238368
 C     17.77315880      1.14055943     -4.20855853
 C     19.06042020      0.40073053     -4.61747330
 C     18.97829195     -1.12961909     -4.46619549
 C     20.20086577     -1.88082361     -5.02530640
 C     20.29622114     -3.34880259     -4.56973527
 C     21.47059090     -4.12386237     -5.19562503
 C     21.74796465     -5.48500489     -4.53082818
 C     22.96488254     -6.22919082     -5.11125747
 C     22.88962797     -7.76061402     -4.96745297
 C     21.59573451     -8.37956189     -5.52811619
 C     21.39734556     -9.86063262     -5.15573022
 C     21.46173948    -10.14012711     -3.64267495
 C     21.34859241    -11.63150771     -3.27582124
 C     21.57464682    -11.92790378     -1.78161618
 C     21.81563372    -13.41619055     -1.46772477
 C     22.17346808    -13.69604254      0.00374981
 C     21.92020116    -15.14975308      0.44441012
 C     22.11166009    -15.38919052      1.95358644
 C     21.85264520    -16.84160399      2.39518175
 C     21.75842988    -17.02493738      3.92132471
 C     21.82463791    -18.49321205      4.38109203
 C     21.51492717    -18.69606650      5.87592624
 C     21.38902918    -20.17265906      6.29476286
 C     20.57072089    -20.39134643      7.58089947
 C     19.10702563    -19.92353437      7.47917407
 C     18.16410909    -20.59022046      8.49801560
 C     18.01182400    -22.11094150      8.30876235
 C     16.96065306    -22.75486452      9.23180232
 C     16.79899276    -24.27344566      9.03336526
 C     15.68839297    -24.90297612      9.89467792
 C     15.68269382    -26.44291117      9.88173388
 C     14.41575105    -27.06976034     10.49289355
 C     14.15365762    -28.51869218     10.04177988
 C     15.30599776    -29.49074978     10.35613036
 C     15.08879176    -30.91581491      9.81427158
 C     16.27881072    -31.86415442     10.05114083
 C     16.03504100    -33.30705438      9.57133250
 C     14.76045394    -33.95169477     10.14706386
 C     14.63123944    -35.45735379      9.85059374
 C     13.39899818    -36.11914389     10.49496579
 C     13.42757040    -37.65859733     10.46552541
 C     12.08984409    -38.31738171     10.85035196
 C     12.15656508    -39.85187873     10.96200848
 C     10.93957398    -40.48232048     11.66420207
 C     11.08550257    -41.99105757     11.93626320
 C      9.91593097    -42.60009208     12.73173742
 C     10.06019384    -44.10952378     13.00081764
 C      8.76360164    -44.78664918     13.48242938
 C      8.87394095    -46.31527430     13.63319568
 C      7.58745555    -46.98856850     14.14625535
 C      7.35745246    -48.40591998     13.58964654
 C      6.02368795    -49.04096279     14.02483945
 C      5.67319400    -50.33872469     13.27346202
 C      4.40965541    -51.04504060     13.79899800
 C      4.22539140    -52.47793950     13.26566181
 C      2.83306439    -53.07503471     13.54225320
 C      2.59889915    -54.44845023     12.88613092
 C      1.45380707    -55.25898572     13.52126581
 C      1.78666154    -56.74627791     13.74210478
 C      0.82301890    -57.46791953     14.70243089
 C      1.10826011    -58.97280793     14.86226941
 C      0.63331838    -59.56133223     16.20378702
 C      0.80633217    -61.08757036     16.31452718
 C      0.38921019    -61.66790017     17.67864835
 C      0.49179611    -63.20208076     17.76447411
 C      0.15709663    -63.77547783     19.15400354
 C      0.44860948    -65.28083708     19.29722990
 C     -0.27324768    -65.94865431     20.48236381
 C     -0.17569543    -67.48554403     20.48968280
 C     -0.85123619    -68.15028476     21.70350504
 C     -0.80810727    -69.68948989     21.67926724
 C     -1.95609234    -70.36058627     22.45602969
 C     -1.88315417    -71.89871815     22.47677454
 C     -2.99431094    -72.56734222     23.30736017
 C     -3.06971710    -74.09605732     23.13723062
 C     -3.91977278    -74.55150535     21.93657563
 C     -5.32357763    -73.92021186     21.88758094
 C     -6.12087901    -74.26388188     20.61565271
 C     -7.39919503    -73.42498725     20.43190301
 C     -8.18195602    -73.74956069     19.14600359
 C     -8.57052913    -75.23322356     19.00687981
 C     -9.51177671    -75.52591853     17.82367119
 C     -9.42380414    -76.96988415     17.29563319
 H     -0.36333333      0.00000000      1.02766186
 H     -0.36333333     -0.88998127     -0.51383093
 H     -0.36333333      0.88998127     -0.51383093
 H      1.88274777      0.71028352     -0.75241032
 H      1.88274777      0.80329032     -0.65218757
 H      1.82362666      1.59294333     -1.41331192
 H      1.82362666     -0.03670210     -2.12921864
 H      4.22710976      0.30730384     -0.73860592
 H      3.55845698      1.91253197     -0.35858909
 H      3.93339786      2.89673482     -2.25399675
 H      4.16569778      1.12548886     -3.17220534
 H      5.28518097      3.19755492     -1.12853213
 H      3.90943170      3.84878227     -1.64145954
 H      6.79792230      2.76383395     -2.25897773
 H      6.17921660      2.66812817     -0.59275136
 H      6.18880862      5.26769690     -0.80333555
 H      6.80479537      5.06123511     -2.46050196
 H      8.76526849      3.78721942     -1.57925696
 H      8.39102742      4.16028244     -0.09619342
 H      9.08995882      4.61521797     -3.06905013
 H      8.89214961      3.00220033     -2.34288742
 H     10.93717411      3.71735668     -0.92274162
 H     11.24253074      4.19982673     -2.82296005
 H     11.32744094      4.67157112     -3.87550723
 H     12.44335562      3.32813104     -2.79162045
 H     13.26789488      3.07013312     -2.05971530
 H     13.40982385      4.82833823     -2.29812175
 H     13.86200352      4.48398709     -4.68724023
 H     13.72311731      2.72367332     -4.46302445
 H     15.88138484      2.76925440     -4.57749840
 H     15.90721195      3.77053350     -2.97475005
 H     16.56961109      4.37244969     -4.90567377
 H     16.10787743      2.82901664     -5.66256421
 H     17.66617103      1.81153020     -3.77164031
 H     18.20158486      3.09308152     -3.50306752
 H     18.32851210      0.65593319     -5.01156545
 H     17.10279660      0.94086030     -3.37259514
 H     19.88763674      0.80358499     -4.03307525
 H     19.24005591      0.58524121     -5.67661768
 H     18.16153040     -1.49238138     -5.09021801
 H     18.76759703     -1.35998647     -3.42185909
 H     20.42137664     -2.71775049     -4.36271426
 H     20.29216731     -1.64563688     -6.08570785
 H     19.39561067     -3.86839369     -4.89688333
 H     20.35107681     -3.36700915     -3.48126874
 H     22.39785057     -3.61962576     -4.92353139
 H     21.35291842     -4.10819999     -6.27914147
 H     20.84984430     -6.09689121     -4.61494098
 H     21.97306666     -5.31285790     -3.47831001
 H     23.84511536     -5.59928261     -4.98278243
 H     22.78959202     -6.39619496     -6.17402878
 H     21.96336817     -8.01121215     -4.45040041
 H     22.81396371     -8.00200413     -3.90721444
 H     21.52782400     -8.13101034     -6.58722444
 H     20.74929723     -7.94348093     -4.99757182
 H     21.81198739    -10.02238802     -4.16073910
 H     22.24410934    -10.42767509     -5.54245227
 H     20.68254266     -9.55619880     -3.15279738
 H     22.43810294     -9.82250979     -3.27670552
 H     22.16681091    -12.16617683     -3.75826028
 H     20.39716446    -12.00611976     -3.65338008
 H     20.83117065    -11.37608983     -1.20642531
 H     22.57262671    -11.58311787     -1.51095253
 H     22.69651308    -13.74456212     -2.01938016
 H     20.94595824    -13.98209753     -1.80166166
 H     21.35378940    -13.34222254      0.62908034
 H     23.08081769    -13.14317091      0.24695680
 H     22.51898718    -15.80798853     -0.18509874
 H     20.86290433    -15.37226663      0.30049646
 H     21.42062871    -14.74198748      2.49368260
 H     23.13637038    -15.12532143      2.21520052
 H     22.54062415    -17.49195735      1.85497302
 H     20.82667463    -17.10134955      2.13438177
 H     20.94298002    -16.40355218      4.29148947
 H     22.69752927    -16.69412865      4.36489875
 H     22.77067055    -18.91595916      4.04285081
 H     20.99897130    -19.03455958      3.91922895
 H     20.51062145    -18.32049039      6.07191759
 H     22.23718011    -18.12219466      6.45654816
 H     22.32978436    -20.67452526      6.06846661
 H     20.58618915    -20.62648172      5.71373542
 H     19.77633337    -19.64566571      7.61266019
 H     21.05344936    -19.84516637      8.39130712
 H     18.62689206    -20.47348596      6.66977614
 H     18.69408170    -19.86823711      8.48640767
 H     18.52740979    -20.36384214      9.50044537
 H     18.53894427    -21.59209634      8.70740355
 H     18.99671122    -22.56837177      8.40286185
 H     17.62014952    -22.29429576      7.30822633
 H     15.99676918    -22.28647172      9.03271424
 H     17.25010065    -22.56539358     10.26544678
 H     17.76097735    -24.74855600      9.22560417
 H     16.50441020    -24.45459347      7.99967934
 H     14.74379242    -24.42172122      9.64125429
 H     15.92100185    -24.71717408     10.94323441
 H     16.64539040    -26.79237223     10.25481869
 H     15.54900695    -26.77652894      8.85269209
 H     13.55265687    -26.71904772      9.92705869
 H     14.33253101    -26.73538235     11.52699499
 H     15.09737641    -28.94956817      9.70735393
 H     14.05071018    -28.52652318      8.95668058
 H     15.46939482    -29.49154436     11.43381342
 H     16.20385372    -29.13215527      9.85277696
 H     16.04158932    -31.28843324      9.43819662
 H     14.17462257    -31.31420700     10.25436069
 H     15.90352652    -32.77528124     10.51709115
 H     17.15647928    -31.44156455      9.56204402
 H     15.82446282    -33.28176085      8.50216598
 H     14.97089407    -33.52398303      9.66424788
 H     13.90544145    -33.34335986      9.85213629
 H     14.84204163    -33.96109355     11.23396547
 H     15.49552097    -35.96614938     10.27749476
 H     14.62633378    -35.59458261      8.76927779
 H     12.50606027    -35.61829571     10.12091635
 H     13.46433238    -35.98683513     11.57493146
 H     12.74863789    -38.02875875     11.23372538
 H     13.48507693    -37.98051462      9.42573589
 H     11.32595316    -37.97533646     10.15208575
 H     11.82859784    -37.99865876     11.85944367
 H     12.89580107    -40.10849973     11.72080741
 H     12.47108940    -40.25230712      9.99824940
 H     10.04428262    -40.21822733     11.10134490
 H     10.87169295    -40.06809871     12.67014068
 H     11.96153794    -42.14245088     12.56693119
 H     11.23206925    -42.49865143     10.98286576
 H      8.99748118    -42.44096000     12.16673570
 H      9.84735770    -42.08417508     13.68945730
 H     10.97899148    -44.27089288     13.56461807
 H      9.10154408    -44.58698464     12.79803264
 H      7.99928700    -44.64626481     12.71808956
 H      8.44683914    -44.30255206     14.40623211
 H      9.66223525    -46.53258607     14.35393675
 H      9.14127086    -46.73684488     12.66422047
 H      6.78296849    -46.77061889     13.44383200
 H      7.34390154    -46.56476118     15.12050829
 H      8.20645102    -49.02767506     13.87376283
 H      7.30113521    -48.34243292     12.50295534
 H      5.21103407    -48.40140449     13.68037052
 H      6.00818690    -49.09355296     15.11345968
 H      6.47007464    -51.06166935     13.44791047
 H      5.61406371    -50.11301980     12.20872688
 H      3.56896021    -50.35750218     13.70614052
 H      4.69232628    -52.03810139     14.14832226
 H      5.09435872    -53.06711774     13.55868877
 H      4.16620648    -52.43391830     12.17816042
 H      2.08624074    -52.43550983     13.07176157
 H      2.67347536    -53.08745399     14.62043552
 H      3.35036022    -55.14155581     13.26429875
 H      2.71640974    -54.33781970     11.80814569
 H      0.53528960    -54.67809931     13.43761985
 H      1.68885386    -55.41754184     14.57374525
 H      0.86434283    -57.27039813     13.99255677
 H      0.85423446    -57.28462071     13.91200701
 H     -0.18461008    -57.39940814     14.29244305
 H      0.85788288    -56.96196141     15.66725775
 H      2.12305105    -59.09084990     15.24222394
 H      1.03050984    -59.44243796     13.88170706
 H     -0.44252030    -59.40592851     16.28453866
 H      1.13878990    -59.02918568     17.00965214
 H      1.86370349    -61.32240739     16.19239006
 H      0.19100901    -61.44319677     17.14096971
 H     -0.19384624    -62.57188854     17.50272154
 H      0.99665404    -61.19711777     18.45161400
 H      1.52598906    -63.48772883     17.57224995
 H     -0.15245872    -63.63210930     16.99759004
 H     -0.86243240    -63.48539380     19.40799533
 H      0.84852933    -63.34468360     19.87818387
 H      1.50904358    -65.44437909     19.10530929
 H     -0.14197596    -65.81654861     18.55404620
 H     -1.34697695    -65.81883649     20.34689134
 H      0.04014756    -65.45006228     21.39958211
 H      0.87790215    -67.76191610     20.53031057
 H     -0.61448809    -67.86123920     19.56533755
 H     -1.90557898    -67.87376890     21.70300364
 H     -0.15769878    -68.87718882     22.12625360
 H      0.23559001    -70.00276757     21.65371164
 H     -1.31258490    -70.03232502     20.77590330
 H     -2.28948908    -71.23094976     21.89086244
 H     -1.90513133    -70.03258249     23.49425726
 H     -0.94005733    -72.19093196     22.93859643
 H     -1.91018925    -72.25704323     21.44771077
 H     -3.95761995    -72.27549971     22.88907356
 H     -2.91943130    -72.20679086     24.33327233
 H     -4.02258809    -74.34218672     22.66866132
 H     -3.06420682    -74.32296077     22.07112347