62
Step 1 E=         0.1749
 C      0.00000000      0.00000000      0.00000000
 C      1.54000000      0.00000000      0.00000000
 C      2.16637443      1.40686000      0.00000000
 C      3.70637443      1.40686000      0.00000000
 C      4.33274886      2.81372001      0.00000000
 C      5.87274886      2.81372001      0.00000000
 C      6.49912329      4.22058001      0.00000000
 C      8.03912329      4.22058001      0.00000000
 C      8.66549772      5.62744002      0.00000000
 C     10.20549772      5.62744002      0.00000000
 C     10.83187215      7.03430002      0.00000000
 C     12.37187215      7.03430002      0.00000000
 C     12.99824658      8.44116003      0.00000000
 C     14.53824658      8.44116003      0.00000000
 C     15.16462101      9.80766904     -0.33452684
 C     16.68368640      9.87685529     -0.09110620
 C     17.31006083     11.24336430     -0.42563304
 C     18.78861071     11.37214170     -0.01465049
 C     19.41498514     12.73865071     -0.34917733
 C     20.94749439     12.77795501     -0.20264895
 H     -0.36333333      0.00000000      1.02766186
 H     -0.36333333     -0.88998127     -0.51383093
 H     -0.36333333      0.88998127     -0.51383093
 H      1.88274777     -0.52778528     -0.88998127
 H      1.88274777     -0.52778528      0.88998127
 H      1.82362666      1.93464528      0.88998127
 H      1.82362666      1.93464528     -0.88998127
 H      4.04912220      0.87907473     -0.88998127
 H      4.04912220      0.87907473      0.88998127
 H      3.99000109      3.34150529      0.88998127
 H      3.99000109      3.34150529     -0.88998127
 H      6.21549663      2.28593473     -0.88998127
 H      6.21549663      2.28593473      0.88998127
 H      6.15637552      4.74836529      0.88998127
 H      6.15637552      4.74836529     -0.88998127
 H      8.38187106      3.69279473     -0.88998127
 H      8.38187106      3.69279473      0.88998127
 H      8.32274995      6.15522530      0.88998127
 H      8.32274995      6.15522530     -0.88998127
 H     10.54824549      5.09965474     -0.88998127
 H     10.54824549      5.09965474      0.88998127
 H     10.48912438      7.56208530      0.88998127
 H     10.48912438      7.56208530     -0.88998127
 H     12.71461992      6.50651474     -0.88998127
 H     12.71461992      6.50651474      0.88998127
 H     12.65549881      8.96894531      0.88998127
 H     12.65549881      8.96894531     -0.88998127
 H     14.88099435      7.71689041     -0.73895703
 H     14.88099435      8.14013454      0.98995334
 H     14.68357912     10.56573921      0.28355755
 H     14.97587466     10.02298335     -1.38624665
 H     17.16472829      9.11878512     -0.70919059
 H     16.87243276      9.66154097      0.96061361
 H     16.74197126     12.01662529      0.09151460
 H     17.23876105     11.39877641     -1.50213823
 H     19.35670027     10.59888071     -0.53179813
 H     18.85991049     11.21672959      1.06185469
 H     18.98739502     13.48484797      0.32049150
 H     19.16270005     12.98825844     -1.37978308
 H     21.40687256     12.78722811     -1.19107482
 H     21.28276558     11.89753674      0.34558174
 H     21.23754313     13.67691947      0.34125787
62
Step 10000 E=         6.4350
 C      0.00000000      0.00000000      0.00000000
 C      1.54000000      0.00000000      0.00000000
 C      2.16637443      0.28992720      1.37666165
 C      3.70145602      0.17005557      1.40414467
 C      4.23888593     -1.13562553      0.78935530
 C      5.76907198     -1.16393360      0.61809737
 C      6.31849946     -2.51273509      0.11763360
 C      7.85601744     -2.60003101      0.11340324
 C      8.41329785     -3.79631098     -0.68029240
 C      9.88643698     -3.63779831     -1.10021480
 C     10.47559428     -4.87752278     -1.79848187
 C     10.37888658     -4.83620046     -3.33488680
 C     10.91939085     -6.09924174     -4.03071856
 C     10.64414282     -6.14640910     -5.54518671
 C     10.93127037     -7.51431822     -6.19170229
 C     10.51799845     -7.60644139     -7.67235068
 C     10.92044386     -6.38012489     -8.51246112
 C     10.44714170     -6.44127113     -9.97664901
 C     10.74273051     -5.16383536    -10.78435261
 C     10.25630952     -5.21936540    -12.24445913
 H     -0.36333333      0.00000000      1.02766186
 H     -0.36333333     -0.88998127     -0.51383093
 H     -0.36333333      0.88998127     -0.51383093
 H      1.88274777     -0.60503459      0.83937900
 H      1.88274777     -0.55438781      0.87365790
 H      1.82362666     -0.47218400      2.07652626
 H      1.82362666      1.26957151      1.70970969
 H      4.01217201     -0.44743087      0.56137182
 H      4.02163841     -0.34113364      0.49625215
 H      3.90962887     -1.18674177     -0.24846787
 H      3.81960244     -1.97422508      1.34527990
 H      6.06611421     -2.17991743      0.35801512
 H      5.99917050     -1.65649577     -0.32664448
 H      7.10074833     -2.31363694     -0.61485984
 H      6.03963435     -3.28404440      0.83555853
 H      8.14069944     -3.64016212      0.27209613
 H      8.16669182     -3.13107293     -0.78636112
 H      9.36411735     -4.08977225     -0.23540730
 H      9.45874515     -3.93373475     -0.40414997
 H     10.20264950     -4.55632442     -1.59460273
 H     10.01732727     -4.10722022     -2.07520752
 H     10.16019259     -4.86554399     -2.84178350
 H     10.40328141     -5.72299265     -1.11433895
 H     11.25012219     -5.34535291     -3.74696965
 H     10.27617817     -5.85827518     -3.69946085
 H     10.29412961     -6.30624689     -4.89922143
 H     11.41131916     -5.79724717     -4.95532973
 H     11.42104268     -6.74866866     -6.01615384
 H     10.33341367     -7.15817267     -5.80572818
 H     10.44900048     -8.28537945     -5.59088591
 H     11.21006618     -7.34974634     -7.23251399
 H     10.29322048     -6.60114129     -8.02864632
 H      9.44771774     -7.41222058     -7.74218956
 H     11.98332407     -6.19342831     -8.35906606
 H     10.08225265     -6.11651033     -9.15747497
 H     10.30419545     -5.42131905    -10.33353014
 H     11.25291031     -6.07517882    -10.61289847
 H     11.81767873     -5.10789288    -10.95598237
 H     10.42366553     -4.30418831    -10.19502716
 H      9.37214789     -4.59191346    -12.35698584
 H     10.00753503     -6.24794502    -12.50567783
 H     11.04496067     -4.85754144    -12.90416573
62
Step 20000 E=         8.1180
 C      0.00000000      0.00000000      0.00000000
 C      1.54000000      0.00000000      0.00000000
 C      2.16637443     -1.23745986     -0.66928930
 C      3.66766276     -1.41564880     -0.37606235
 C      4.35360653     -2.48405376     -1.24760809
 C      4.28487722     -2.19793566     -2.75923394
 C      2.85835324     -2.22987730     -3.33855170
 C      2.72812496     -1.56148890     -4.71981834
 C      3.05856873     -0.05735987     -4.72148879
 C      2.20376017      0.77282980     -3.74594411
 C      2.68152392      2.22694426     -3.57596486
 C      1.89180989      3.02671999     -2.52320157
 C      2.51986908      4.38766833     -2.16970299
 C      1.87106830      5.08093662     -0.95725232
 C      1.73410283      4.17693354      0.28194859
 C      0.85845404      4.77407763      1.39920332
 C      0.74648424      3.88369484      2.65071491
 C      0.61062252      4.66932989      3.96825776
 C      1.69453425      5.74430081      4.17116873
 C      3.13412307      5.21859087      4.02012865
 H     -0.36333333      0.00000000      1.02766186
 H     -0.36333333     -0.88998127     -0.51383093
 H     -0.36333333      0.88998127     -0.51383093
 H      1.88274777     -0.24884009     -1.00434186
 H      1.88274777     -0.30774130     -0.98788626
 H      3.17297606     -0.97738779     -0.99672736
 H      2.93848322     -1.63081049     -0.00806067
 H      4.15789481     -1.75132188     -1.28989829
 H      4.17721589     -1.63046304     -1.31537617
 H      4.00265837     -2.36702561     -2.27290795
 H      4.90093020     -1.97797465     -2.04285694
 H      3.25543377     -2.33938337     -3.08838244
 H      3.45752625     -1.51195673     -2.94095703
 H      2.60912574     -1.22905013     -3.69115719
 H      2.90097293     -2.68137023     -4.32973165
 H      2.22689286     -0.60224481     -4.59052350
 H      3.38793155     -0.69422526     -4.74449719
 H      3.18634583      0.26663744     -3.68862929
 H      2.94412678      0.31983235     -3.70525601
 H      2.61187483      1.78278327     -3.70674701
 H      2.09569703      1.77753895     -4.15457828
 H      1.93410170      2.76763818     -2.99535302
 H      2.88659010      2.39904645     -2.51935296
 H      2.60332714      3.56493237     -1.89696628
 H      2.06182184      4.08859857     -2.70099304
 H      1.75628581      5.00496228     -1.69642847
 H      2.65775511      4.43125828     -1.08933853
 H      1.21625764      4.36379137     -0.46225160
 H      2.28683086      4.64374831     -0.04944844
 H      1.63734501      4.81341151      1.16151310
 H      0.73172655      4.30500340      0.69053139
 H      0.36726335      3.95497043      1.92446049
 H      1.30019413      5.72011444      1.71222097
 H      1.39075344      4.29906474      3.42562460
 H      0.00491360      4.32246728      3.31828642
 H      1.58835308      5.07542221      4.22754903
 H      0.72460598      5.73069010      3.74775318
 H      1.50701841      6.55688371      3.46928067
 H      2.36472526      5.72176041      3.31184578
 H      3.54999824      5.56490994      3.07397277
 H      3.12651774      4.12873948      4.03644114
 H      3.74478296      5.59002981      4.84306705
62
Step 30000 E=        10.5595
 C      0.00000000      0.00000000      0.00000000
 C      1.54000000      0.00000000      0.00000000
 C      2.16637443      0.15970005      1.39776642
 C      3.70613269      0.13260326      1.40097066
 C      4.33778719      0.58431195      2.73084729
 C      5.81009813      0.16531588      2.89920046
 C      6.30487897      0.18761721      4.35738241
 C      6.06039540      1.52463278      5.08141084
 C      5.88117910      1.38834302      6.60486304
 C      4.43045791      1.11416576      7.04285261
 C      4.26834072      0.86847944      8.55445979
 C      4.70676979      2.05524384      9.43250887
 C      4.84808645      1.71033064     10.92671919
 C      5.21050404      2.91430633     11.81593009
 C      5.21034414      2.60182247     13.32389355
 C      3.80714750      2.57498009     13.95786412
 C      3.81608914      2.51659175     15.49673086
 C      2.45477061      2.15206927     16.11764568
 C      1.29899047      3.06864196     15.67530329
 C      1.38777834      4.50172151     16.23207945
 H     -0.36333333      0.00000000      1.02766186
 H     -0.36333333     -0.88998127     -0.51383093
 H     -0.36333333      0.88998127     -0.51383093
 H      1.88274777     -0.68099936      0.77901466
 H      1.88274777     -0.63378618      0.81788694
 H      3.04392086     -0.48423664      1.45571290
 H      3.10056397      0.71157048      1.29370424
 H      4.04369516     -0.04434795      2.42216596
 H      4.04161000     -0.16615528      2.39409619
 H      5.24568812      0.00356355      2.89378041
 H      5.34990319      0.93446881      2.52808791
 H      6.08963543      0.30728455      3.94313715
 H      5.87906510     -0.50916757      3.75267315
 H      6.88208847      1.09963238      4.50955835
 H      5.47328744      0.48330722      4.99700961
 H      5.26584665      1.37793426      5.81303357
 H      6.40109299      1.42369746      6.11186570
 H      5.30738460      0.48298941      6.80283959
 H      5.11338504      0.63810346      6.79389449
 H      4.42020834      0.96887646      8.12307757
 H      4.25788782      1.61982289      7.99292126
 H      4.80735149      1.65093188      9.08862789
 H      3.68698325      1.68917055      8.97468544
 H      4.20729052      1.97047950     10.39761791
 H      5.25970764      1.66392592     10.28645853
 H      5.55287114      2.41065078     11.37497163
 H      4.33266176      2.47669359     11.50561920
 H      4.58186113      2.88465510     12.70589014
 H      5.71212247      2.54200674     12.70916688
 H      4.37638243      3.13207866     13.78371551
 H      4.31952179      2.01682030     13.55260293
 H      3.85530495      1.98322402     14.87197878
 H      3.77746325      3.31657999     14.75614254
 H      2.92291960      3.02195439     15.86409551
 H      3.21441151      1.66371272     15.81086680
 H      1.82381544      3.04081199     16.10615827
 H      1.70514677      2.15568273     15.32634862
 H      1.02394314      3.70398927     16.51719565
 H      1.72548598      3.97843022     15.25282619
 H      1.68692872      5.18307231     15.43560589
 H      2.12483609      4.53477368     17.03442192
 H      0.41441357      4.80164109     16.62029238
62
Step 40000 E=         8.7888
 C      0.00000000      0.00000000      0.00000000
 C      1.54000000      0.00000000      0.00000000
 C      2.16637443      1.30630963     -0.52231239
 C      3.70374226      1.34080880     -0.43918613
 C      4.40303171      0.30360483     -1.33740782
 C      5.93771609      0.42915530     -1.36151041
 C      6.65922875     -0.81356986     -1.91527358
 C      6.60577275     -2.03694723     -0.98141584
 C      7.51776664     -3.19853204     -1.41797954
 C      9.01526199     -2.84075462     -1.45119080
 C      9.57477426     -2.36096830     -0.09902546
 C     11.07556878     -2.01697050     -0.12871249
 C     11.62264705     -1.48421650      1.20862761
 C     13.09288322     -1.85598007      1.47657807
 C     14.07808891     -1.31216041      0.42527891
 C     14.26995103      0.21494926      0.47748032
 C     15.16402268      0.77267055     -0.64554366
 C     15.81902926      2.12570214     -0.31107109
 C     16.70826644      2.68635164     -1.43647296
 C     17.47935111      3.96182432     -1.04891927
 H     -0.36333333      0.00000000      1.02766186
 H     -0.36333333     -0.88998127     -0.51383093
 H     -0.36333333      0.88998127     -0.51383093
 H      1.88274777      0.93090804      0.45170143
 H      1.88274777      0.95596824      0.39591500
 H      3.01685089      1.55619123      0.11199746
 H      3.12259485      1.06603359     -0.98708108
 H      4.10629988      1.00060921     -1.39328865
 H      4.10549596      1.12063973     -1.42823595
 H      5.41933090      0.64707471     -1.53044766
 H      5.29348774     -0.05317463     -0.81982065
 H      6.35505305     -0.52807341     -1.67398929
 H      6.29790302      0.04712089     -2.31671462
 H      7.30161797     -1.21466799     -1.13133712
 H      5.95746885     -1.64760555     -1.91108963
 H      6.56642916     -2.93607486     -1.59633175
 H      7.55034192     -2.57427971     -1.06604965
 H      8.33331507     -3.28257971     -0.69970610
 H      8.45052222     -3.13104290     -0.85805790
 H      9.31548426     -2.52917525     -0.45074846
 H      9.47178203     -3.19027520     -0.52516444
 H     10.66318721     -2.36473473     -0.15770302
 H     10.07796601     -1.40680330     -0.25544547
 H     11.23986400     -1.14475019      0.50401084
 H     11.47863343     -2.15446806      0.87464852
 H     12.40831189     -2.15805313      1.55035113
 H     12.61217627     -1.06314490      1.03077761
 H     13.56935159     -2.07945212      0.52204251
 H     13.72454827     -1.05592382      1.09056090
 H     13.75233184     -0.31343102      0.13455234
 H     14.61595899     -0.47091082      0.86242296
 H     15.26672521      0.44815532      0.10310595
 H     14.09167514      0.61707917     -0.51982066
 H     14.94968055      1.83541127     -0.75841360
 H     16.05335847      1.20902916     -0.19082065
 H     16.71127584      2.23621545     -0.92733632
 H     15.69021896      2.78950585     -1.16598193
 H     16.65127721      3.77449949     -1.40842872
 H     17.71449046      2.82539732     -1.04115094
 H     18.53139144      3.71905315     -0.89934217
 H     17.06601790      4.37017052     -0.12668880
 H     17.38641172      4.69901892     -1.84641936
62
Step 50000 E=         5.5168
 C      0.00000000      0.00000000      0.00000000
 C      1.54000000      0.00000000      0.00000000
 C      2.16637443      1.39956266     -0.14310637
 C      3.69904063      1.38754486     -0.29273891
 C      4.32762798      2.78824122     -0.41326966
 C      3.78808702      3.61748289     -1.59346194
 C      4.25273445      5.08571287     -1.59159399
 C      5.78276676      5.25853432     -1.61868417
 C      6.46416222      5.02079739     -0.25824991
 C      5.91838126      5.90467755      0.87862255
 C      6.42543424      5.50925275      2.27795686
 C      5.42575427      5.80191790      3.41223506
 C      4.02620028      5.20122161      3.18417232
 C      3.98824465      3.66269548      3.23982045
 C      2.60043507      3.08185663      3.56877452
 C      2.56832414      1.54438561      3.65094361
 C      1.25549492      0.97480497      4.21985252
 C     -0.01365122      1.56471721      3.57730165
 C     -1.31949608      0.88839114      4.03441459
 C     -2.58670909      1.46246499      3.37395232
 H     -0.36333333      0.00000000      1.02766186
 H     -0.36333333     -0.88998127     -0.51383093
 H     -0.36333333      0.88998127     -0.51383093
 H      1.88274777      0.77088077      0.69019331
 H      1.88274777      0.81031044      0.64344461
 H      3.11240789      1.40865703      0.39822346
 H      3.02979324      1.32270905     -0.80394029
 H      4.09193187      2.31231270      0.12980211
 H      4.10199293      2.25022225      0.23784301
 H      4.12364082      3.17055458     -1.41343251
 H      3.53876906      3.49754565     -0.66364704
 H      4.08973283      4.65498913     -1.44961964
 H      4.60487495      4.22012939     -1.99067053
 H      5.03014736      5.19822730     -0.83590247
 H      4.91450777      5.23686992     -2.44441731
 H      6.08033485      5.81737213     -0.73141108
 H      6.21028440      4.65309508     -0.81945204
 H      5.68790675      4.89200968      0.49603198
 H      5.71531443      5.13731742      0.52517212
 H      6.34449246      5.55531533      1.81908802
 H      6.72234930      6.07831009      1.59387575
 H      5.76470085      5.95607856      3.02084182
 H      5.67831593      4.86713255      2.74442858
 H      4.43806693      5.93847046      2.97186350
 H      4.70578100      4.98460495      3.45392477
 H      4.14580039      4.20937375      2.74824384
 H      3.86385488      4.41916741      3.92588331
 H      3.33298020      3.36539863      4.05856527
 H      2.99775015      3.33272401      2.92654825
 H      2.50682381      2.11582181      3.07267608
 H      2.73794778      2.19446063      4.18660832
 H      1.96816042      1.25979760      4.51518500
 H      1.62929388      1.19763171      3.21956917
 H      0.56502327      1.80232962      4.38279992
 H      0.56027000      0.82540418      3.39375222
 H     -0.79692318      0.80730797      3.60757170
 H     -0.75406345      1.72105373      4.36180699
 H     -2.08885869      1.65510739      4.12566896
 H     -1.87221102      0.57623756      3.14831847
 H     -2.96288531      0.75575446      2.63425531
 H     -2.34580227      2.40639049      2.88500594
 H     -3.34836316      1.63157503      4.13512566
62
Step 60000 E=        14.0788
 C      0.00000000      0.00000000      0.00000000
 C      1.54000000      0.00000000      0.00000000
 C      2.16637443     -1.21845801      0.70328880
 C      3.70022688     -1.15212341      0.82368968
 C      4.29831843     -2.19228987      1.78906020
 C      5.83758736     -2.19057788      1.83647582
 C      6.42843820     -2.96785908      3.02741210
 C      7.70166672     -2.33484996      3.61884138
 C      8.55681986     -3.30847147      4.45093167
 C      8.45036550     -3.09274415      5.97202640
 C      8.45856992     -4.39648179      6.79166098
 C      7.05507670     -4.93031301      7.13346650
 C      7.06330450     -6.22636731      7.96519695
 C      7.78405370     -7.40391182      7.28291437
 C      7.00539902     -8.01658842      6.10396387
 C      7.80941960     -9.04800818      5.29074545
 C      6.99280051     -9.75369828      4.19223065
 C      7.84909607    -10.54324591      3.18477224
 C      7.03124302    -11.42725613      2.22495855
 C      5.94662206    -12.27047943      2.92078312
 H     -0.36333333      0.00000000      1.02766186
 H     -0.36333333     -0.88998127     -0.51383093
 H     -0.36333333      0.88998127     -0.51383093
 H      1.88274777     -0.98581606     -0.31430983
 H      1.88274777     -1.00266334     -0.25551946
 H      3.10792370     -1.45397774      0.20718859
 H      3.03525284     -0.87940172      1.26737314
 H      4.06840651     -2.14893790      1.06639246
 H      4.07887068     -2.16723645      0.94316523
 H      5.35049757     -2.32730228      1.53847946
 H      5.13212842     -1.72997140      2.31738069
 H      6.15260877     -2.67742476      2.75942849
 H      6.17438403     -3.20026817      2.07140882
 H      7.49892884     -3.08813211      2.86102646
 H      6.53064907     -2.28142255      3.86792256
 H      7.80605314     -2.67391648      4.64949038
 H      8.43911672     -3.12355442      3.76788084
 H      7.92888574     -3.73242032      5.23455537
 H      8.01601153     -3.54176212      5.36810222
 H      8.47920615     -4.06735034      6.45927479
 H      9.11042161     -3.80555413      6.46632172
 H      7.45247397     -4.56672544      7.17492074
 H      7.83652641     -5.12880608      6.27701253
 H      7.08999368     -6.01966705      7.11973393
 H      7.11533612     -5.47374366      8.07641503
 H      7.10892883     -7.07296280      7.28014622
 H      8.06591471     -6.65223012      7.92629126
 H      7.03944984     -8.15479787      7.01865076
 H      7.50660370     -7.41123932      6.22884236
 H      7.71244313     -8.23861520      5.30465621
 H      7.31391800     -9.05607537      5.99268525
 H      7.13570102     -9.85259540      4.99605463
 H      7.62685877     -8.86692240      4.23151012
 H      7.49056061     -9.58986676      3.23646179
 H      7.42945362    -10.73727363      4.01898634
 H      7.27892863    -11.41272682      2.85764528
 H      7.40164580    -10.43618293      2.19662965
 H      6.83901043    -12.38070529      2.71697617
 H      5.97271970    -11.23413652      2.39912283
 H      4.96512117    -11.84633835      2.70898052
 H      6.11906100    -12.26771515      3.99705315
 H      5.98799774    -13.29421167      2.54881492
62
Step 70000 E=        10.8552
 C      0.00000000      0.00000000      0.00000000
 C      1.54000000      0.00000000      0.00000000
 C      2.16637443     -0.86379095     -1.11045949
 C      3.68400439     -1.07618867     -0.95786031
 C      4.38006009     -1.56628494     -2.24118104
 C      4.30461448     -0.57094721     -3.41387485
 C      5.13562874     -0.98600095     -4.64218495
 C      5.21449020      0.09254371     -5.73859832
 C      4.72400203     -0.38097212     -7.11946911
 C      3.21712656     -0.69367163     -7.17555246
 C      2.31460936      0.51522070     -6.86629199
 C      0.96364576      0.14141401     -6.22850995
 C      0.44636655      1.17198024     -5.20774776
 C      1.39452989      1.40415114     -4.01666297
 C      1.21997197      2.77391358     -3.33484159
 C      2.06554626      2.95133842     -2.06003787
 C      2.02154179      4.37404270     -1.47218063
 C      2.97812915      4.59110191     -0.28498818
 C      2.99121943      3.43202657      0.72890186
 C      4.38813322      2.83361055      0.97816102
 H     -0.36333333      0.00000000      1.02766186
 H     -0.36333333     -0.88998127     -0.51383093
 H     -0.36333333      0.88998127     -0.51383093
 H      1.88274777      0.17610151     -1.01961376
 H      1.88274777      0.11555580     -1.02823676
 H      3.14919744     -0.45671966     -1.34805560
 H      2.97893326     -1.44539081     -0.67504044
 H      4.15229330     -0.91259638     -1.92844934
 H      4.16552999     -0.79318386     -1.89388455
 H      4.02545347     -0.96148321     -3.07578814
 H      4.91976561     -0.72719056     -2.68020106
 H      4.99665213     -0.90099763     -4.18863327
 H      4.17844174     -1.13733000     -4.33658335
 H      4.56124146     -0.75376579     -5.53898263
 H      5.90096564     -0.22827749     -4.81015690
 H      5.60740573     -0.36815912     -6.64494831
 H      4.46555900     -0.13457007     -6.49729549
 H      3.83922912      0.19728472     -7.38573202
 H      3.71843335      0.00859340     -7.27812078
 H      2.66857146      0.22279145     -6.95810654
 H      2.70834866      0.15282235     -7.63673898
 H      1.31408350      0.14689644     -6.63960885
 H      2.01834569      0.46265410     -5.81864482
 H      0.96992698      0.47638112     -5.19127440
 H      0.44393356      1.06181686     -5.96231864
 H      0.85816587      0.92230888     -4.22990036
 H      1.26996349      1.83491119     -4.94258620
 H      1.72334093      2.44315884     -4.03778855
 H      0.89041855      2.05051836     -3.29820547
 H      1.33927452      2.63933368     -2.25978106
 H      2.17743737      3.06686626     -2.90409953
 H      2.45251827      3.97021543     -2.04447163
 H      1.45496868      3.45587657     -1.31121461
 H      2.00719894      4.29543200     -0.38511364
 H      3.04066095      4.67763979     -1.23275433
 H      2.63274906      3.98080932      0.54949103
 H      3.55153922      3.67630618     -0.13515604
 H      3.70138166      2.68133856      0.38214964
 H      3.74108233      3.65024514      1.48928748
 H      4.74930979      3.14937819      1.95690627
 H      5.07553810      3.18218621      0.20740195
 H      4.32827647      1.74571305      0.94659851
62
Step 80000 E=        13.4419
 C      0.00000000      0.00000000      0.00000000
 C      1.54000000      0.00000000      0.00000000
 C      2.16637443      1.02199195      0.96684410
 C      3.68262605      0.84466836      1.16966756
 C      4.27895332      1.75253016      2.26135467
 C      4.34364539      1.09807573      3.65387194
 C      3.01601276      1.14972864      4.43253976
 C      2.27195042     -0.19727831      4.49206709
 C      1.05356820     -0.19876052      5.43394955
 C     -0.16056141      0.57599910      4.88875526
 C     -1.13019138     -0.28386273      4.05685661
 C     -2.46360075      0.41394410      3.73022981
 C     -3.34182698     -0.35283004      2.72406078
 C     -3.43981017     -1.86424197      3.00268829
 C     -4.11656111     -2.66635968      1.87564998
 C     -3.88916335     -4.18683485      1.96534684
 C     -4.76583771     -4.89026245      3.01807266
 C     -6.27455758     -4.62998262      2.85188373
 C     -6.87091448     -5.20858891      1.55528309
 C     -8.38029527     -4.95115605      1.39066860
 H     -0.36333333      0.00000000      1.02766186
 H     -0.36333333     -0.88998127     -0.51383093
 H     -0.36333333      0.88998127     -0.51383093
 H      1.88274777     -0.01966483      1.03452272
 H      1.88274777      0.04148844      1.03387750
 H      2.93116004      0.51396754      1.55430828
 H      3.17683338      1.24389973      0.62358086
 H      3.92026763      1.08525576      2.20588384
 H      3.90278503      0.96394293      2.23051797
 H      4.01172641      1.33972187      3.23412344
 H      4.93625625      1.14923078      2.88751976
 H      3.39332899      1.27174047      4.15868805
 H      3.44794188      0.49196204      3.78967110
 H      2.24669441      0.66581259      3.83081347
 H      3.04176698      0.38141460      5.20528180
 H      2.02910081     -0.40897014      5.53336946
 H      1.23520876     -0.00427184      4.76777567
 H      0.17331722     -0.47870125      4.85525153
 H      0.14992684     -0.23306561      4.82538120
 H     -0.78824029     -0.11891879      4.33089475
 H     -1.03860928     -0.06540002      4.96451213
 H     -2.11081081      0.19174236      4.07374781
 H     -1.43124988      0.28982167      3.18030086
 H     -2.69787525      0.23176553      2.68140837
 H     -3.19649466     -0.35066143      3.47265475
 H     -2.97746866     -1.37830834      2.66292756
 H     -3.98351263     -1.03615759      3.28030083
 H     -4.40227263     -2.21903410      2.63405764
 H     -3.39022043     -2.39224155      2.05039773
 H     -3.50061846     -3.53904814      1.65855668
 H     -4.44955699     -3.61976504      2.28581088
 H     -4.04425192     -4.49620344      2.99895150
 H     -4.86105757     -4.68013075      1.95190099
 H     -5.51707993     -4.18185802      3.36721201
 H     -5.65580901     -5.27583294      2.52069304
 H     -6.51586987     -4.67879802      1.79005256
 H     -6.75137567     -5.56121894      2.54603502
 H     -7.86077953     -5.60546417      1.78057668
 H     -7.41245660     -4.41365555      1.04253259
 H     -8.53740666     -4.18302564      0.63344230
 H     -8.79738819     -4.61592217      2.34027470
 H     -8.87441894     -5.87231138      1.08177596
62
Step 90000 E=         7.6554
 C      0.00000000      0.00000000      0.00000000
 C      1.54000000      0.00000000      0.00000000
 C      2.16637443      1.37355240     -0.30431707
 C      3.70636755      1.37455146     -0.29982192
 C      4.32892815      1.06997709      1.07540633
 C      5.86769207      1.00890353      1.06671060
 C      6.49264500      0.76309048      2.45257127
 C      6.01182167      1.74270961      3.53919691
 C      5.24873968      1.07022715      4.69551573
 C      4.08080202      0.17625792      4.23907224
 C      3.58457823     -0.80498230      5.31727888
 C      2.34198492     -1.61487582      4.90299110
 C      2.32645938     -2.02246901      3.41799051
 C      3.06692136     -3.33999881      3.12230273
 C      3.07494056     -3.73349404      1.63344504
 C      3.79039637     -2.71960256      0.72144337
 C      3.66427898     -3.03106767     -0.78144847
 C      4.07230592     -1.86383857     -1.69943008
 C      3.16797844     -1.69230607     -2.93408323
 C      3.50910794     -0.46127952     -3.79420200
 H     -0.36333333      0.00000000      1.02766186
 H     -0.36333333     -0.88998127     -0.51383093
 H     -0.36333333      0.88998127     -0.51383093
 H      1.88274777      0.84566428      0.59621799