62
Step 1 E=        -0.8365
 C      0.00000000      0.00000000      0.00000000
 C      1.54000000      0.00000000      0.00000000
 C      2.16637443      1.40686000      0.00000000
 C      3.70637443      1.40686000      0.00000000
 C      4.33274886      2.81372001      0.00000000
 C      5.87274886      2.81372001      0.00000000
 C      6.49912329      4.22058001      0.00000000
 C      8.03912329      4.22058001      0.00000000
 C      8.66549772      5.62744002      0.00000000
 C     10.20549772      5.62744002      0.00000000
 C     10.83187215      7.03430002      0.00000000
 C     12.37187215      7.03430002      0.00000000
 C     12.99824658      8.44116003      0.00000000
 C     14.53824658      8.44116003      0.00000000
 C     15.16462101      9.84802003      0.00000000
 C     16.70462101      9.84802003      0.00000000
 C     17.33099544     11.25488004      0.00000000
 C     18.87099544     11.25488004      0.00000000
 C     19.49736987     12.66174004      0.00000000
 C     21.03736987     12.66174004      0.00000000
 H     -0.36333333      0.00000000      1.02766186
 H     -0.36333333     -0.88998127     -0.51383093
 H     -0.36333333      0.88998127     -0.51383093
 H      1.88274777     -0.52778528     -0.88998127
 H      1.88274777     -0.52778528      0.88998127
 H      1.82362666      1.93464528      0.88998127
 H      1.82362666      1.93464528     -0.88998127
 H      4.04912220      0.87907473     -0.88998127
 H      4.04912220      0.87907473      0.88998127
 H      3.99000109      3.34150529      0.88998127
 H      3.99000109      3.34150529     -0.88998127
 H      6.21549663      2.28593473     -0.88998127
 H      6.21549663      2.28593473      0.88998127
 H      6.15637552      4.74836529      0.88998127
 H      6.15637552      4.74836529     -0.88998127
 H      8.38187106      3.69279473     -0.88998127
 H      8.38187106      3.69279473      0.88998127
 H      8.32274995      6.15522530      0.88998127
 H      8.32274995      6.15522530     -0.88998127
 H     10.54824549      5.09965474     -0.88998127
 H     10.54824549      5.09965474      0.88998127
 H     10.48912438      7.56208530      0.88998127
 H     10.48912438      7.56208530     -0.88998127
 H     12.71461992      6.50651474     -0.88998127
 H     12.71461992      6.50651474      0.88998127
 H     12.65549881      8.96894531      0.88998127
 H     12.65549881      8.96894531     -0.88998127
 H     14.88099435      7.91337475     -0.88998127
 H     14.88099435      7.91337475      0.88998127
 H     14.82187324     10.37580531      0.88998127
 H     14.82187324     10.37580531     -0.88998127
 H     17.04736878      9.32023475     -0.88998127
 H     17.04736878      9.32023475      0.88998127
 H     16.98824767     11.78266532      0.88998127
 H     16.98824767     11.78266532     -0.88998127
 H     19.21374321     10.72709476     -0.88998127
 H     19.21374321     10.72709476      0.88998127
 H     19.15462210     13.18952532      0.88998127
 H     19.15462210     13.18952532     -0.88998127
 H     21.40070321     12.66174004     -1.02766186
 H     21.40070321     11.77175877      0.51383093
 H     21.40070321     13.55172132      0.51383093
62
Step 10000 E=        10.1184
 C      0.00000000      0.00000000      0.00000000
 C      1.54000000      0.00000000      0.00000000
 C      2.16637443      1.30690247      0.52082722
 C      3.70543574      1.28738860      0.57092195
 C      4.37977005      1.55030323     -0.78839742
 C      4.11913453      2.95836919     -1.35498315
 C      4.98090191      3.30916017     -2.58213541
 C      4.92492957      4.79508884     -2.98273882
 C      5.92074561      5.18281465     -4.09162073
 C      5.55232821      6.47753168     -4.83966916
 C      6.61492078      6.93858641     -5.85452164
 C      7.16643952      5.80701631     -6.74163842
 C      6.18630936      5.32951983     -7.82926978
 C      6.69512747      4.12797058     -8.64718392
 C      7.08792685      2.90916679     -7.79171564
 C      5.97501439      2.42407486     -6.84423916
 C      5.90837979      0.89346403     -6.68806516
 C      4.95886247      0.41840252     -5.57256823
 C      4.88411965     -1.11253607     -5.42343557
 C      4.66857515     -1.59105975     -3.97562493
 H     -0.36333333      0.00000000      1.02766186
 H     -0.36333333     -0.88998127     -0.51383093
 H     -0.36333333      0.88998127     -0.51383093
 H      1.88274777      0.36395926      0.96858537
 H      1.88274777      0.42054692      0.94539106
 H      1.82362666      1.46771265      1.54296423
 H      1.82362666      2.12666447     -0.11053182
 H      4.08222054      1.94554460     -0.21199816
 H      4.08058503      2.03655183     -0.12629930
 H      3.74378700      2.22475821     -1.36175250
 H      4.04988069      0.78299737     -1.48876499
 H      4.83949886      3.14620349     -2.15115745
 H      4.06761987      2.88654056     -2.44139324
 H      4.37527824      3.90114453     -3.26833836
 H      6.03012030      3.24447532     -2.29393992
 H      5.94646774      5.16004752     -3.08934517
 H      5.27257937      4.88596959     -4.01180650
 H      5.35587528      5.40734396     -4.99639037
 H      6.92837137      4.96018960     -3.74058168
 H      5.51114467      7.29160473     -4.11600557
 H      4.56992401      6.34397639     -5.29259848
 H      7.43232461      6.21755654     -5.84634170
 H      7.54983455      7.10594018     -5.31970489
 H      6.32634219      5.21232844     -7.10036229
 H      6.69995890      5.88320273     -7.72382550
 H      5.94326467      6.17847139     -8.46826158
 H      5.28015407      4.97132133     -7.34072457
 H      6.13783586      3.24319850     -8.33944306
 H      6.18427105      3.23210684     -8.29426199
 H      6.87981457      3.14201130     -6.74741075
 H      7.87613483      3.21347092     -7.10307410
 H      5.10624675      2.15536083     -7.44518471
 H      5.71404270      3.24329473     -6.17425962
 H      6.02414236      0.65136775     -5.63161430
 H      4.85996863      0.59918563     -6.63975109
 H      4.64686679     -0.60111726     -5.79914738
 H      5.47121640     -0.34649092     -4.98901748
 H      5.35424965     -1.38831327     -4.47949451
 H      4.53988250     -1.53256883     -6.36851401
 H      3.60021922     -1.66787668     -3.77359826
 H      5.11829509     -0.87665056     -3.28608053
 H      5.13465041     -2.56734735     -3.84244690
62
Step 20000 E=         7.3084
 C      0.00000000      0.00000000      0.00000000
 C      1.54000000      0.00000000      0.00000000
 C      2.16637443     -1.40158591      0.12170462
 C      3.67639200     -1.38875022      0.42383403
 C      4.26029616     -2.77423857      0.75711766
 C      5.79958860     -2.82072239      0.76136203
 C      6.43949426     -2.50682413     -0.60377116
 C      6.27723205     -3.63007544     -1.64472143
 C      6.18331156     -3.12868500     -3.09778253
 C      4.99776001     -2.18085511     -3.35794791
 C      3.62118026     -2.86867907     -3.29856441
 C      2.43174839     -1.89049219     -3.29706307
 C      1.08506982     -2.54130361     -3.66380733
 C      0.06076767     -1.56318756     -4.26853380
 C      0.45757106     -1.01726223     -5.65277099
 C     -0.46704199      0.09818314     -6.17475981
 C      0.04586930      0.79091858     -7.45094146
 C     -1.04707003      1.53081657     -8.24443663
 C     -0.58927677      2.02596443     -9.62894157
 C      0.68872785      2.88457962     -9.59601518
 H     -0.36333333      0.00000000      1.02766186
 H     -0.36333333     -0.88998127     -0.51383093
 H     -0.36333333      0.88998127     -0.51383093
 H      1.88274777     -0.76024476     -0.70189164
 H      1.88274777     -0.80038413     -0.65575087
 H      3.24974907     -1.29949294      0.05864581
 H      1.82362666     -1.85040212      1.05400713
 H      4.08997012     -2.35793273      0.14501795
 H      4.11205577     -2.30808077      0.03251777
 H      5.19387978     -2.89399231      0.20740806
 H      3.73915510     -3.16455833      1.63128154
 H      6.14945762     -2.68354661     -0.26180681
 H      6.17007488     -1.95793608      0.20779207
 H      7.03438377     -3.36749474     -0.90947130
 H      6.08942073     -3.24585512     -1.32445258
 H      5.52276644     -3.32069573     -2.36802347
 H      6.67437623     -3.27581030     -2.59596940
 H      5.15808718     -3.26515707     -3.44186151
 H      5.50009665     -2.27978436     -3.12395694
 H      4.21139010     -2.41017952     -2.63882854
 H      4.28395762     -2.29278538     -2.54182430
 H      3.00216490     -2.33494309     -2.57742234
 H      3.59990310     -3.65833254     -4.04962677
 H      1.68850411     -2.25355284     -4.00690455
 H      1.52884913     -2.44915405     -3.05054760
 H      0.29362568     -1.81200657     -3.49105897
 H      0.60804448     -1.93246725     -4.43183409
 H     -0.17618912     -1.89638540     -5.27894494
 H     -0.12711590     -1.85851022     -5.30080522
 H     -0.41906908     -1.05316379     -6.29954231
 H      1.41126085     -0.49839384     -5.55606850
 H      0.15018380      0.86068051     -6.64987040
 H     -1.47997542     -0.29899493     -6.24045189
 H     -0.61774079      0.52714489     -8.27443712
 H     -0.34081789      1.80989865     -7.46683589
 H     -0.56147529      2.18288340     -8.97045771
 H     -1.05029326      1.14582880     -9.26417876
 H     -0.17063282      3.02579807     -9.51418120
 H      0.49902159      1.97864839     -9.66725443
 H      1.56184214      2.24072608     -9.70195887
 H      0.74368425      3.41805931     -8.64707935
 H      0.66521888      3.60267459    -10.41570227
62
Step 30000 E=         8.4318
 C      0.00000000      0.00000000      0.00000000
 C      1.54000000      0.00000000      0.00000000
 C      2.16637443      1.31483217     -0.50047123
 C      3.69627387      1.25641385     -0.66658871
 C      4.28929098      2.45341017     -1.43283312
 C      5.81997777      2.57570650     -1.31603606
 C      6.38691530      3.89615207     -1.86975561
 C      7.90223778      3.86182448     -2.14218802
 C      8.54035787      5.25344052     -2.30894398
 C      9.85335875      5.24810129     -3.11368007
 C     10.43287818      6.65055711     -3.37612031
 C     11.02750626      7.32646330     -2.12665312
 C     11.58612501      8.73827450     -2.38420745
 C     12.24545348      9.38541400     -1.15209689
 C     13.53752742     10.16144186     -1.46820715
 C     14.70279921      9.27205604     -1.94015473
 C     16.06550302      9.98881064     -1.97017436
 C     17.19988984      9.15194231     -2.59018882
 C     18.58541629      9.81965756     -2.51226068
 C     18.61284445     11.26829661     -3.03407733
 H     -0.36333333      0.00000000      1.02766186
 H     -0.36333333     -0.88998127     -0.51383093
 H     -0.36333333      0.88998127     -0.51383093
 H      1.88274777      0.92325153      0.46715156
 H      1.88274777      0.94923788      0.41179049
 H      3.24136502      1.27068573     -0.32569614
 H      2.82929290      1.08315321     -1.33411622
 H      4.07380414      2.27721370     -0.72607448
 H      4.08708581      2.27188354     -0.60187918
 H      5.15958134      2.81415713     -0.88460296
 H      5.30461726      2.19749271     -1.73568423
 H      6.13005175      3.49146175     -1.81937139
 H      6.05766505      3.57894005     -0.96230282
 H      7.27960632      4.15195433     -1.29899477
 H      7.39793980      3.70988973     -2.23202043
 H      8.12552160      4.58283273     -2.92856671
 H      8.33458895      4.79950037     -1.79299411
 H      9.59590003      5.18009367     -2.04712158
 H      9.29343763      5.19326116     -3.09465978
 H     10.53673557      5.96551623     -2.65935428
 H     10.59219750      5.83499770     -2.56799709
 H     10.10957179      7.31106953     -2.57157303
 H      9.69352703      7.22871629     -3.93036920
 H     11.80262837      8.02164542     -2.44915514
 H     10.91647563      8.40536635     -2.23500630
 H     11.46262397      9.32685099     -1.47512814
 H     12.36620821      8.93752399     -1.64944909
 H     12.42866732     10.43675586     -1.37393688
 H     12.48792076     10.41958735     -1.39662726
 H     14.35796918      9.69918116     -0.91930792
 H     14.08161338      9.62037164     -2.24236055
 H     15.42534574      9.90113411     -2.46004635
 H     14.92116344      8.54809663     -1.15510707
 H     16.82012297      9.30695673     -1.57809785
 H     16.48784015      9.88043569     -2.96916696
 H     18.00976115      9.82590467     -2.86944356
 H     18.04212457      9.15026333     -1.89827998
 H     18.70192652     10.46961275     -3.37948823
 H     18.44845751     10.85987183     -2.21680074
 H     18.40050119     11.95402359     -2.21384026
 H     17.85929447     11.38844122     -3.81242668
 H     19.59815111     11.48776045     -3.44530281
62
Step 40000 E=        10.2439
 C      0.00000000      0.00000000      0.00000000
 C      1.54000000      0.00000000      0.00000000
 C      2.16637443      1.31452386     -0.50128045
 C      3.70590694      1.30119916     -0.53680640
 C      4.30101318      0.26959344     -1.51314558
 C      4.28964005     -1.17554608     -0.98112827
 C      4.64046891     -2.23606606     -2.04123038
 C      6.04437331     -2.07051496     -2.65216840
 C      7.19150714     -2.45391828     -1.69891824
 C      8.59253029     -2.34380923     -2.32868814
 C      9.73036434     -2.83618784     -1.41518007
 C     11.13205694     -2.71959108     -2.04228695
 C     12.27406737     -3.16717556     -1.11111547
 C     13.52544707     -3.67260505     -1.85286331
 C     14.08434860     -2.67853766     -2.88778317
 C     14.59000177     -1.35781459     -2.27818868
 C     15.02391852     -0.31185046     -3.32187220
 C     15.87807513     -0.88670492     -4.46710529
 C     16.46453976      0.18181858     -5.40833681
 C     15.40271102      0.99289197     -6.17402584
 H     -0.36333333      0.00000000      1.02766186
 H     -0.36333333     -0.88998127     -0.51383093
 H     -0.36333333      0.88998127     -0.51383093
 H      1.88274777      0.92353890      0.46658319
 H      1.88274777      0.94949117      0.41120613
 H      3.22357080      1.31351087     -0.23588489
 H      2.90414004      1.07275811     -1.26636294
 H      4.02308035      0.97636595     -1.52775767
 H      4.02339658      1.09730803     -1.55941519
 H      4.78155011     -0.51632364     -0.93046333
 H      3.81628481     -0.69030238     -1.33499276
 H      4.45157053     -1.85124316     -1.82095681
 H      5.16964623     -1.68988944     -1.36731479
 H      5.04672792     -1.72618496     -2.91477196
 H      5.70852904     -2.17244781     -2.24931757
 H      6.69099431     -1.60976430     -1.90538188
 H      6.72149175     -2.75910825     -2.14674788
 H      7.85152507     -3.14834969     -2.21876567
 H      8.12772134     -2.09737484     -2.12842929
 H      9.14293499     -3.25691969     -2.10200783
 H      9.08172204     -3.31454238     -2.24826052
 H     10.41194250     -3.44163802     -2.01265918
 H     10.51140561     -3.26638098     -2.04208388
 H     11.85353816     -2.55820397     -1.24133811
 H     11.77252636     -3.47891922     -1.59360031
 H     12.79213178     -4.00297619     -1.58137770
 H     13.21203960     -3.09989247     -1.66227886
 H     14.29734788     -2.90605275     -1.78454993
 H     14.27433303     -2.88069545     -1.84065612
 H     13.59052021     -1.71785878     -2.74173655
 H     14.85192743     -2.07490726     -2.40347638
 H     15.35329093     -0.94573600     -2.93824996
 H     14.56214610     -0.59043420     -3.05178509
 H     16.09302937     -0.42808544     -3.49961197
 H     14.81630453     -0.71152315     -4.31447391
 H     15.89436242     -0.16091627     -5.28016467
 H     16.79926719     -0.30761645     -4.53161693
 H     15.83335254      0.24119219     -6.29500330
 H     15.83346193      1.06895973     -5.35522047
 H     15.12622406      1.87130173     -5.59088670
 H     14.52096851      0.37346446     -6.33815900
 H     15.80938639      1.30798114     -7.13498055
62
Step 50000 E=         8.8725
 C      0.00000000      0.00000000      0.00000000
 C      1.54000000      0.00000000      0.00000000
 C      2.16637443      1.26427535      0.61714093
 C      3.68269175      1.39167819      0.38018038
 C      4.07835689      1.49212751     -1.10473006
 C      5.40859200      0.79576079     -1.44699887
 C      6.14699690      1.41219592     -2.64964841
 C      7.59175458      0.90802076     -2.82309193
 C      8.36077845      1.59247090     -3.96839988
 C      9.87447547      1.30910139     -3.96359748
 C     10.65905417      2.07775817     -5.04304318
 C     10.26800030      1.70619868     -6.48547876
 C     10.84714117      2.65121356     -7.55465729
 C     12.37982844      2.58214743     -7.68769710
 C     12.99828177      3.77856586     -8.43448918
 C     14.52217596      3.90922420     -8.25483697
 C     15.12002678      5.18210917     -8.88248195
 C     14.42906198      6.48423071     -8.43678344
 C     15.09967171      7.76362883     -8.97065893
 C     14.49252164      9.06648748     -8.41791293
 H     -0.36333333      0.00000000      1.02766186
 H     -0.36333333     -0.88998127     -0.51383093
 H     -0.36333333      0.88998127     -0.51383093
 H      1.88274777      0.29047653      0.99309987
 H      1.88274777      0.34864084      0.97420405
 H      3.24828240      1.13393324      0.64134996
 H      2.77557690      1.75155348     -0.14412931
 H      3.83962130      1.94653255     -0.54481137
 H      3.84200671      2.04961836     -0.47412254
 H      5.16580054      1.53208925     -1.16773311
 H      4.67073134      0.61398689     -1.36175450
 H      5.80123331      1.23788473     -2.36267306
 H      6.15644264      1.56364463     -1.64492266
 H      7.12757759      1.74935517     -2.31366456
 H      7.06139097      0.84348466     -2.81861876
 H      7.78334619      0.77647544     -3.88802784
 H      8.17914515      1.70260530     -3.28320900
 H      9.23022615      2.09532116     -3.54495882
 H      9.34599801      1.13214224     -4.04283071
 H     10.40056935      2.25442734     -4.09657896
 H     10.40155193      2.26253161     -3.92808384
 H     10.96090781      1.37093318     -5.81594862
 H     10.78584406      1.42362142     -5.90567255
 H     10.26206141      2.61689758     -7.08438797
 H     11.06258886      2.03997206     -7.15280503
 H     11.81914423      3.00405615     -7.20996590
 H     11.81205185      2.25730004     -7.87384299
 H     12.79734699      3.52509016     -7.33465706
 H     12.79302589      3.54775619     -7.39620510
 H     13.59242382      4.35515203     -7.72551555
 H     14.02338727      3.52263688     -8.70236803
 H     14.92592419      4.43210957     -9.12183078
 H     14.79976391      4.94902652     -8.42762605
 H     14.30230100      5.78977476     -9.26999594
 H     15.28439130      5.91093055     -8.08881723
 H     15.15778201      7.29330159     -8.48649681
 H     14.32134488      7.13058219     -9.30783268
 H     14.33254228      8.52886197     -9.08911009
 H     15.16455683      8.48287173     -8.15421568
 H     15.01463801      9.35179936     -7.50462676
 H     13.43614594      8.91078762     -8.19898840
 H     14.59704486      9.85902864     -9.15889430
62
Step 60000 E=         9.4084
 C      0.00000000      0.00000000      0.00000000
 C      1.54000000      0.00000000      0.00000000
 C      2.16637443     -0.11481483      1.40216712
 C      3.69685745      0.05516045      1.42033676
 C      4.38706554     -0.61319038      2.62388151
 C      5.90519044     -0.36398976      2.69313359
 C      6.56266937     -0.86010117      3.99436183
 C      8.09073609     -0.67309692      4.03487731
 C      8.67364695     -0.58622286      5.45764497
 C      9.11511559      0.83085954      5.86823348
 C     10.06416835      0.86463915      7.08056916
 C     10.54571951      2.27737260      7.45990105
 C     11.35540345      2.98089010      6.35487840
 C     11.93646138      4.34367996      6.77532514
 C     12.65246881      5.09685409      5.63881202
 C     13.18907280      6.48174906      6.04590180
 C     14.00634988      7.18485734      4.94622143
 C     14.34505531      8.65399366      5.26009579
 C     15.25231610      8.83849733      6.49072012
 C     14.57246529      8.49038895      7.82796484
 H     -0.36333333      0.00000000      1.02766186
 H     -0.36333333     -0.88998127     -0.51383093
 H     -0.36333333      0.88998127     -0.51383093
 H      1.88274777     -0.81933186      0.63191714
 H      1.88274777     -0.78056747      0.67921896
 H      3.24086197     -0.25729531      1.28694631
 H      2.83218780      0.73530561      1.55078673
 H      4.13088536     -0.80248948      1.93429821
 H      4.13826553     -0.85693774      1.82200304
 H      5.39611853     -0.89781383      2.32571786
 H      5.25616398     -0.01448857      2.89650588
 H      6.25597103     -0.65776686      3.68245052
 H      6.38302747     -1.26424558      3.07954170
 H      7.42273059     -1.47565156      3.73074770
 H      7.58824301     -0.49196290      4.02216332
 H      8.32437762      0.07651402      4.79091637
 H      8.46037052     -1.07528371      4.97812498
 H      9.61309361     -0.03551345      5.41011475
 H      8.70536989      0.46291856      5.75157683
 H     10.18154596      0.80617958      6.09232532
 H     10.20325471      0.84646142      5.92995737
 H     10.89113853      1.53620116      6.84986418
 H     10.77467264      1.67869732      6.93706677
 H     11.46335235      2.48590396      6.90984228
 H     10.62620940      2.86850572      6.54766039
 H     11.20597085      4.05619285      6.45231492
 H     12.04981509      3.67516031      6.82803942
 H     11.58949788      5.09710396      6.06816985
 H     11.64325299      5.08526902      6.03224069
 H     12.21351972      6.09118621      5.55679171
 H     13.41218541      5.74177982      6.08040176
 H     14.13872784      6.64471977      5.53629817
 H     13.45800501      7.02497446      5.13998699
 H     13.53681692      8.14470729      4.73098466
 H     14.84281496      7.70071967      5.41772139
 H     14.60738380      8.72730926      6.31551446
 H     15.41579314      8.72560553      5.45112523
 H     14.63953945      9.19758491      7.31755800
 H     15.05524013      8.02345966      7.18712135
 H     14.73229448      7.43594873      8.05315463
 H     13.50309288      8.68812862      7.75419709
 H     15.00081539      9.10070111      8.62303418
62
Step 70000 E=        10.6421
 C      0.00000000      0.00000000      0.00000000
 C      1.54000000      0.00000000      0.00000000
 C      2.16637443      0.63009137      1.25787119
 C      3.67868037      0.37589587      1.39899315
 C      4.40788483      1.40802982      2.27908426
 C      3.96519485      2.86282720      2.03579396
 C      4.97035024      3.91579047      2.53831858
 C      4.50856707      5.37054936      2.33329934
 C      4.34149861      5.77240798      0.85607296
 C      3.62672146      7.12094202      0.65076938
 C      3.27632185      7.42702681     -0.81726748
 C      2.58129903      8.78544380     -1.02522556
 C      1.80298463      8.89458565     -2.34958002
 C      0.28673063      9.09565050     -2.17028491
 C     -0.53993374      8.78403933     -3.43168274
 C     -0.39129989      7.33665732     -3.93625513
 C     -0.73577438      6.26755114     -2.88271381
 C     -0.27592073      4.84669364     -3.25861084
 C     -0.70562941      3.76261907     -2.25276156
 C     -0.48685093      4.15324863     -0.77928115
 H     -0.36333333      0.00000000      1.02766186
 H     -0.36333333     -0.88998127     -0.51383093
 H     -0.36333333      0.88998127     -0.51383093
 H      1.88274777     -0.37198937      0.96552984
 H      1.88274777     -0.31429674      0.98582023
 H      3.14569863      0.17843120      1.41607109
 H      3.05804631      1.18050504      0.95776113
 H      4.00410294      0.76997495      2.36175056
 H      3.98066360      0.65625892      2.40810300
 H      4.50703838      2.33331827      1.71153703
 H      3.73983181      2.25413024      2.44007879
 H      4.68926170      3.52529816      2.51009284
 H      4.82170385      3.42373697      1.66179854
 H      5.10189554      4.66437141      1.75702324
 H      4.47225030      4.88520211      2.55372988
 H      5.09173966      5.80399244      1.52081130
 H      3.98613691      5.43301355      1.37869736
 H      3.30523695      6.07072429      0.69711023
 H      4.07915406      6.82960789      0.81602686
 H      2.81354671      6.97314940     -0.05986708
 H      2.71792230      6.94312224      0.07582224
 H      2.26466904      7.83140057     -0.85103786
 H      2.35693979      8.01227004     -0.83535041
 H      2.50633743      8.97164117     -2.09658511
 H      1.69749810      8.62720534     -1.64325186
 H      0.82284727      8.43866723     -2.20969023
 H      0.87591668      9.43516966     -2.15875565
 H     -0.22086762      8.19066745     -2.50412572
 H     -0.22444675      8.21720622     -2.56415459
 H      0.12405645      8.34652142     -4.17719942
 H     -0.80722145      7.72746803     -3.41395234
 H     -0.09084198      6.71007723     -3.09647990
 H     -0.94831579      6.68133957     -3.26663438
 H     -1.19554965      5.42041134     -3.39169402
 H      0.15661177      5.67008441     -2.69621856
 H     -0.24098926      4.24605383     -2.34970402
 H     -1.12129141      4.16944283     -3.13703888
 H     -0.01186048      3.78058750     -1.41224874
 H     -1.17148883      4.25329782     -1.39818017
 H     -1.37927824      4.65011877     -0.39876367
 H      0.36491394      4.82935247     -0.70525277
 H     -0.29133879      3.25675921     -0.19090906
62
Step 80000 E=        16.9537
 C      0.00000000      0.00000000      0.00000000
 C      1.54000000      0.00000000      0.00000000
 C      2.16637443      0.79952803      1.15758801
 C      3.70395900      0.72920244      1.20746779
 C      4.32061823      1.38245690      2.45830352
 C      4.94405734      2.76658817      2.19925849
 C      4.99760127      3.67227147      3.44363416
 C      5.33428628      5.14278355      3.13405799
 C      6.58536622      5.32729745      2.25522148
 C      7.45005272      6.54107066      2.64338620
 C      8.44901499      6.97262464      1.55369104
 C      9.02406388      8.38687331      1.75572935
 C     10.09715397      8.78007472      0.72351313
 C     10.42466121     10.28470196      0.70263544
 C     11.66540324     10.66722496      1.53078721
 C     12.84321582      9.68596459      1.38420744
 C     13.69104024      9.90968788      0.11821312
 C     14.81264749      8.87242422     -0.07590357
 C     14.32342800      7.51344661     -0.61017328
 C     13.28136409      6.82466320      0.29053768
 H     -0.36333333      0.00000000      1.02766186
 H     -0.36333333     -0.88998127     -0.51383093
 H     -0.36333333      0.88998127     -0.51383093
 H      1.88274777     -0.23355215      1.00800663
 H      1.88274777     -0.17359184      1.02004404
 H      3.20004974      0.47536177      1.27813503
 H      2.96633321      1.41933490      0.75261221
 H      4.01287528      0.71911645      2.25272805
 H      4.00740099      0.59441901      2.24566642
 H      5.17835066      1.97829039      2.14624980
 H      4.25700318      2.46482716      2.34637609
 H      4.84696176      3.36161757      3.10734023
 H      5.62486565      2.99476545      3.01934091
 H      5.91358179      4.26145593      3.39957338
 H      5.02161120      4.71012730      3.11140111
 H      6.41052643      5.27793155      3.24149239
 H      5.88639870      5.17759844      2.19487760
 H      6.62820201      6.36804210      1.93410518
 H      7.25653145      6.02470001      2.75648678
 H      7.50839323      7.20917088      1.78411996
 H      7.37276616      7.28466781      1.85017118
 H      8.21891150      7.99805145      1.26446406
 H      8.35391623      8.04868795      1.40828136
 H     10.04341201      8.40073352      1.36993498
 H      9.33711718      8.77147400      0.78506981
 H      9.85560833      9.77076383      0.33842769
 H     10.55799755      9.71345986      1.04680148
 H     11.47376720     10.40339309      0.43173135
 H     11.48850096     10.40107431      0.49574792
 H     11.96014388      9.80284148      2.12582431
 H     12.55047854     10.29812745      1.01260890
 H     13.01432528      9.51213041      0.32185005
 H     13.55276205     10.10619884      0.67143306
 H     14.74350927      9.85463889      0.39638312
 H     13.78088240      8.95859736     -0.40662516
 H     14.36913551      7.87736287     -0.04054774
 H     14.68252213      8.40556066     -1.05222617
 H     14.15416791      6.85195034      0.23945824
 H     13.25483612      7.43158180     -0.41140317
 H     12.28035924      7.13524720     -0.00883981
 H     13.45443977      7.10807887      1.32871896
 H     13.37172854      5.74314802      0.18925009
62
Step 90000 E=         9.7901
 C      0.00000000      0.00000000      0.00000000
 C      1.54000000      0.00000000      0.00000000
 C      2.16637443     -0.00828725     -1.40683560
 C      3.69241601     -0.21510152     -1.41183211
 C      4.47050666      0.84266947     -0.60728537
 C      5.96263148      0.93764832     -0.97626035
 C      6.82520916     -0.19780156     -0.39461328
 C      7.18261274     -0.01427301      1.09205411
 C      7.57936548     -1.31947365      1.80664391
 C      7.77513730     -1.16690119      3.32651069
 C      8.08345716     -2.48867015      4.05415461
 C      6.87506569     -3.43620303      4.17065137
 C      7.21190848     -4.80853579      4.78289293
 C      5.97748907     -5.67303991      5.09981780
 C      6.31223837     -7.12706967      5.48105309
 C      6.94793892     -7.94322913      4.34027767
 C      7.12206892     -9.43915243      4.66197978
 C      7.40068705    -10.31698073      3.42772316
 C      7.01732490    -11.79703723      3.61229355
 C      7.76559386    -12.49940948      4.76049509
 H     -0.36333333      0.00000000      1.02766186
 H     -0.36333333     -0.88998127     -0.51383093
 H     -0.36333333      0.88998127     -0.51383093
 H      1.88274777      0.76091048     -0.70116988