602
Step 1 E=        -4.4345
 C      0.00000000      0.00000000      0.00000000
 C      1.54000000      0.00000000      0.00000000
 C      2.16637443      1.40686000      0.00000000
 C      3.70637443      1.40686000      0.00000000
 C      4.33274886      2.81372001      0.00000000
 C      5.87274886      2.81372001      0.00000000
 C      6.49912329      4.22058001      0.00000000
 C      8.03912329      4.22058001      0.00000000
 C      8.66549772      5.62744002      0.00000000
 C     10.20549772      5.62744002      0.00000000
 C     10.83187215      7.03430002      0.00000000
 C     12.37187215      7.03430002      0.00000000
 C     12.99824658      8.44116003      0.00000000
 C     14.53824658      8.44116003      0.00000000
 C     15.16462101      9.80766904     -0.33452684
 C     16.68368640      9.87685529     -0.09110620
 C     17.31006083     11.24336430     -0.42563304
 C     18.78861071     11.37214170     -0.01465049
 C     19.41498514     12.73865071     -0.34917733
 C     20.94749439     12.77795501     -0.20264895
 C     21.57386882     14.14446402     -0.53717579
 C     23.10637807     14.18376833     -0.39064741
 C     23.70153118     15.60394145     -0.41303178
 C     25.23404043     15.64324576     -0.26650340
 C     25.82919354     17.06341889     -0.28888777
 C     27.36170280     17.10272319     -0.14235940
 C     27.95685591     18.52289632     -0.16474376
 C     29.48936516     18.56220063     -0.01821539
 C     30.08451827     19.98237375     -0.04059976
 C     31.61702752     20.02167806      0.10592862
 C     32.21218063     21.44185119      0.08354425
 C     33.74468989     21.48115549      0.23007263
 C     34.33984300     22.90132862      0.20768826
 C     35.87235225     22.94063293      0.35421663
 C     36.46750536     24.36080605      0.33183227
 C     38.00001461     24.40011036      0.47836064
 C     38.59516772     25.82028349      0.45597627
 C     40.12767698     25.85958779      0.60250465
 C     40.72283009     27.27976092      0.58012028
 C     42.25533934     27.31906523      0.72664866
 C     42.85049245     28.73923835      0.70426429
 C     44.38300170     28.77854266      0.85079266
 C     44.97815481     30.19871579      0.82840830
 C     46.51066407     30.23802009      0.97493667
 C     47.10581718     31.65819322      0.95255230
 C     48.63832643     31.69749753      1.09908068
 C     49.23347954     33.11767065      1.07669631
 C     50.76598879     33.15697496      1.22322469
 C     51.35723302     34.57884158      1.24126828
 C     52.89492926     34.61878913      1.16714359
 C     53.48617348     36.04065575      1.18518718
 C     55.02386972     36.08060329      1.11106250
 C     55.61511395     37.50246991      1.12910609
 C     57.15281019     37.54241746      1.05498140
 C     57.74405441     38.96428408      1.07302500
 C     59.28281711     39.00222980      1.12170234
 C     59.88281166     40.40011014      0.88183345
 C     61.42157435     40.43805586      0.93051079
 C     62.02156890     41.83593621      0.69064191
 C     63.56033160     41.87388193      0.73931925
 C     64.16032615     43.27176227      0.49945036
 C     65.69908884     43.30970799      0.54812771
 C     66.29908339     44.70758834      0.30825882
 C     67.83784609     44.74553405      0.35693616
 C     68.43784064     46.14341440      0.11706728
 C     69.97660333     46.18136012      0.16574462
 C     70.58573909     47.51287372     -0.31135616
 C     72.12450179     47.55081944     -0.26267882
 C     72.73363755     48.88233304     -0.73977959
 C     74.27240024     48.92027876     -0.69110225
 C     74.88153600     50.25179237     -1.16820302
 C     76.42029870     50.28973809     -1.11952568
 C     77.02943445     51.62125169     -1.59662646
 C     78.56819715     51.65919741     -1.54794912
 C     79.16454842     53.07245003     -1.68463190
 C     80.70331112     53.11039575     -1.63595456
 C     81.29966239     54.52364837     -1.77263734
 C     82.83842509     54.56159409     -1.72396000
 C     83.43477636     55.97484672     -1.86064279
 C     84.97353906     56.01279243     -1.81196544
 C     85.56989033     57.42604506     -1.94864823
 C     87.10865303     57.46399077     -1.89997089
 C     87.70500430     58.87724340     -2.03665367
 C     89.23225548     58.93366880     -1.84712791
 C     89.82860675     60.34692142     -1.98381070
 C     91.35585793     60.40334683     -1.79428494
 C     91.95220920     61.81659945     -1.93096773
 C     93.47946038     61.87302485     -1.74144197
 C     94.07581165     63.28627748     -1.87812476
 C     95.60306283     63.34270288     -1.68859900
 C     96.19941410     64.75595550     -1.82528178
 C     97.72666528     64.81238090     -1.63575603
 C     98.32301655     66.22563353     -1.77243881
 C     99.85026773     66.28205893     -1.58291306
 C    100.45586772     67.68270509     -1.79037143
 C    101.98311890     67.73913050     -1.60084567
 C    102.58871889     69.13977666     -1.80830404
 C    104.06420009     69.25363181     -1.38216763
 C    104.66980008     70.65427797     -1.58962600
 C    106.14528128     70.76813313     -1.16348959
 C    106.75088128     72.16877929     -1.37094796
 C    108.19439619     72.31000448     -0.85333795
 C    108.67308430     73.76785621     -0.72247145
 C    110.11659922     73.90908141     -0.20486144
 C    110.59528733     75.36693313     -0.07399495
 C    112.03880224     75.50815833      0.44361506
 C    112.51749035     76.96601006      0.57448155
 C    113.96100527     77.10723525      1.09209157
 C    114.43969337     78.56508698      1.22295806
 C    115.88320829     78.70631217      1.74056807
 C    116.37796357     80.16209852      1.82718982
 C    117.82147849     80.30332371      2.34479983
 C    118.31623377     81.75911006      2.43142158
 C    119.75974869     81.90033525      2.94903159
 C    120.25450397     83.35612160      3.03565333
 C    121.69801889     83.49734679      3.55326335
 C    122.19277417     84.95313314      3.63988509
 C    123.63628909     85.09435833      4.15749511
 C    124.13104437     86.55014468      4.24411685
 C    125.57455929     86.69136987      4.76172687
 C    126.06931457     88.14715622      4.84834861
 C    127.51282949     88.28838141      5.36595863
 C    128.00758477     89.74416776      5.45258037
 C    129.45109969     89.88539295      5.97019038
 C    130.06217975     91.28150096      5.74868735
 C    131.50569467     91.42272615      6.26629736
 C    132.11677474     92.81883416      6.04479432
 C    133.56028965     92.96005935      6.56240434
 C    134.17136972     94.35616736      6.34090130
 C    135.70046252     94.40575408      6.51701594
 C    136.31154258     95.80186209      6.29551290
 C    137.84063538     95.85144881      6.47162755
 C    138.45171544     97.24755682      6.25012451
 C    139.98080824     97.29714355      6.42623915
 C    140.59188831     98.69325155      6.20473611
 C    142.12098111     98.74283828      6.38085076
 C    142.73206117    100.13894628      6.15934772
 C    144.26115397    100.18853301      6.33546236
 C    144.87223403    101.58464101      6.11395932
 C    146.40132683    101.63422774      6.29007397
 C    147.02852432    102.99601897      5.93829569
 C    148.56771641    103.00796927      5.98671992
 C    149.19491389    104.36976050      5.63494165
 C    150.73410598    104.38171079      5.68336587
 C    151.36130346    105.74350203      5.33158760
 C    152.90049555    105.75545232      5.38001182
 C    153.52769304    107.11724355      5.02823355
 C    155.06688513    107.12919385      5.07665778
 C    155.69408261    108.49098508      4.72487950
 C    157.23327470    108.50293538      4.77330373
 C    157.86047218    109.86472661      4.42152546
 C    159.39966427    109.87667690      4.46994968
 C    160.02686176    111.23846814      4.11817141
 C    161.56605384    111.25041843      4.16659563
 C    162.19174332    112.62375422      3.85990117
 C    163.73093541    112.63570451      3.90832540
 C    164.35662489    114.00904030      3.60163093
 C    165.89581698    114.02099059      3.65005516
 C    166.52150646    115.39432638      3.34336069
 C    168.06069855    115.40627667      3.39178492
 C    168.68638803    116.77961246      3.08509046
 C    170.22558012    116.79156275      3.13351468
 C    170.86059049    118.06932713      2.55413570
 C    172.39978258    118.08127743      2.60255992
 C    173.03479295    119.35904181      2.02318093
 C    174.55976648    119.26798544      1.82885009
 C    175.24047626    120.62507970      1.57091723
 C    176.76544979    120.53402332      1.37658639
 C    177.44615957    121.89111759      1.11865353
 C    178.97113309    121.80006121      0.92432268
 C    179.65184288    123.15715547      0.66638983
 C    181.14601539    123.05056789      0.30905585
 C    181.82672518    124.40766215      0.05112299
 C    183.32089769    124.30107457     -0.30621099
 C    184.00160747    125.65816883     -0.56414385
 C    185.49577999    125.55158124     -0.92147783
 C    186.17648977    126.90867550     -1.17941069
 C    187.67066229    126.80208792     -1.53674467
 C    188.35137207    128.15918218     -1.79467753
 C    189.84629572    128.05280553     -2.14891938
 C    190.52700550    129.40989979     -2.40685223
 C    192.02192915    129.30352314     -2.76109408
 C    192.69394096    130.65766831     -3.05484736
 C    194.08370711    130.53873525     -3.70753792
 C    194.75571892    131.89288042     -4.00129120
 C    196.14548507    131.77394736     -4.65398176
 C    196.81749688    133.12809253     -4.94773504
 C    198.20726303    133.00915947     -5.60042560
 C    198.87927484    134.36330464     -5.89417888
 C    200.26904099    134.24437157     -6.54686944
 C    200.82746010    135.57740580     -7.07864745
 C    202.21722626    135.45847274     -7.73133801
 C    202.77564537    136.79150696     -8.26311601
 C    204.16541152    136.67257390     -8.91580657
 C    204.72383064    138.00560812     -9.44758457
 C    206.16444889    137.91187239     -9.98371205
 C    206.72286800    139.24490662    -10.51549006
 C    208.16348625    139.15117088    -11.05161753
 C    208.72190536    140.48420511    -11.58339554
 C    210.16252361    140.39046937    -12.11952301
 H     -0.36333333      0.00000000      1.02766186
 H     -0.36333333     -0.88998127     -0.51383093
 H     -0.36333333      0.88998127     -0.51383093
 H      1.88274777     -0.52778528     -0.88998127
 H      1.88274777     -0.52778528      0.88998127
 H      1.82362666      1.93464528      0.88998127
 H      1.82362666      1.93464528     -0.88998127
 H      4.04912220      0.87907473     -0.88998127
 H      4.04912220      0.87907473      0.88998127
 H      3.99000109      3.34150529      0.88998127
 H      3.99000109      3.34150529     -0.88998127
 H      6.21549663      2.28593473     -0.88998127
 H      6.21549663      2.28593473      0.88998127
 H      6.15637552      4.74836529      0.88998127
 H      6.15637552      4.74836529     -0.88998127
 H      8.38187106      3.69279473     -0.88998127
 H      8.38187106      3.69279473      0.88998127
 H      8.32274995      6.15522530      0.88998127
 H      8.32274995      6.15522530     -0.88998127
 H     10.54824549      5.09965474     -0.88998127
 H     10.54824549      5.09965474      0.88998127
 H     10.48912438      7.56208530      0.88998127
 H     10.48912438      7.56208530     -0.88998127
 H     12.71461992      6.50651474     -0.88998127
 H     12.71461992      6.50651474      0.88998127
 H     12.65549881      8.96894531      0.88998127
 H     12.65549881      8.96894531     -0.88998127
 H     14.88099435      7.71689041     -0.73895703
 H     14.88099435      8.14013454      0.98995334
 H     14.68357912     10.56573921      0.28355755
 H     14.97587466     10.02298335     -1.38624665
 H     17.16472829      9.11878512     -0.70919059
 H     16.87243276      9.66154097      0.96061361
 H     16.74197126     12.01662529      0.09151460
 H     17.23876105     11.39877641     -1.50213823
 H     19.35670027     10.59888071     -0.53179813
 H     18.85991049     11.21672959      1.06185469
 H     18.98739502     13.48484797      0.32049150
 H     19.16270005     12.98825844     -1.37978308
 H     21.37508451     12.03175776     -0.87231778
 H     21.19977948     12.52834728      0.82795680
 H     21.14627870     14.89066128      0.13249304
 H     21.32158373     14.39407175     -1.56778154
 H     23.54387133     13.61581936     -1.21170381
 H     23.37218545     13.71564799      0.55714465
 H     23.26403792     16.17189042      0.40802462
 H     23.43572380     16.07206180     -1.36082383
 H     25.67153369     15.07529679     -1.08755981
 H     25.49984782     15.17512542      0.68128865
 H     25.39170029     17.63136786      0.53216863
 H     25.56338616     17.53153923     -1.23667983
 H     27.79919605     16.53477422     -0.96341580
 H     27.62751018     16.63460285      0.80543266
 H     27.51936265     19.09084529      0.65631264
 H     27.69104852     18.99101666     -1.11253582
 H     29.92685842     17.99425166     -0.83927179
 H     29.75517254     18.09408029      0.92957667
 H     29.64702501     20.55032272      0.78045665
 H     29.81871089     20.45049409     -0.98839181
 H     32.05452078     19.45372909     -0.71512778
 H     31.88283491     19.55355772      1.05372068
 H     31.77468738     22.00980016      0.90460065
 H     31.94637325     21.90997153     -0.86424780
 H     34.18218314     20.91320652     -0.59098378
 H     34.01049727     21.01303515      1.17786468
 H     33.90234974     23.46927759      1.02874466
 H     34.07403561     23.36944896     -0.74010380
 H     36.30984551     22.37268396     -0.46683977
 H     36.13815963     22.47251259      1.30200869
 H     36.03001210     24.92875502      1.15288867
 H     36.20169798     24.82892639     -0.61595979
 H     38.43750787     23.83216139     -0.34269576
 H     38.26582200     23.93199002      1.42615270
 H     38.15767447     26.38823246      1.27703268
 H     38.32936034     26.28840383     -0.49181578
 H     40.56517023     25.29163882     -0.21855175
 H     40.39348436     25.39146745      1.55029670
 H     40.28533683     27.84770989      1.40117668
 H     40.45702270     27.74788126     -0.36767178
 H     42.69283260     26.75111626     -0.09440775
 H     42.52114672     26.85094489      1.67444071
 H     42.41299919     29.30718732      1.52532069
 H     42.58468507     29.20735869     -0.24352777
 H     44.82049496     28.21059369      0.02973626
 H     44.64880909     28.31042232      1.79858472
 H     44.54066156     30.76666476      1.64946470
 H     44.71234743     30.66683613     -0.11938376
 H     46.94815732     29.67007112      0.15388027
 H     46.77647145     29.76989975      1.92272873
 H     46.66832392     32.22614219      1.77360871
 H     46.84000979     32.12631356      0.00476025
 H     49.07581969     31.12954856      0.27802428
 H     48.90413382     31.22937719      2.04687273
 H     48.79598628     33.68561962      1.89775271
 H     48.96767216     33.58579099      0.12890425
 H     51.20439768     32.61407633      0.38587248
 H     51.03381340     32.66253365      2.15697935
 H     51.04576078     35.06787016      2.16427212
 H     50.95857995     35.12667032      0.38741852
 H     53.20640149     34.12976054      0.24413975
 H     53.29358232     34.07096038      2.02099335
 H     53.17470125     36.52968433      2.10819103
 H     53.08752042     36.58848449      0.33133743
 H     55.33534196     35.59157471      0.18805865
 H     55.42252279     35.53277455      1.96491225
 H     55.30364171     37.99149850      2.05210993
 H     55.21646088     38.05029866      0.27525634
 H     57.46428242     37.05338888      0.13197756
 H     57.55146325     36.99458872      1.90883116
 H     57.36044174     39.48388083      1.95106858
 H     57.41674161     39.48304663      0.17199683
 H     59.66668763     38.32843192      0.35571289
 H     59.60330666     38.65566535      2.10418874
 H     59.49894114     41.07390803      1.64782290
 H     59.56232210     40.74667459     -0.10065295
 H     61.80544487     39.76425798      0.16452135
 H     61.74206391     40.09149142      1.91299720
 H     61.63769838     42.50973409      1.45663136
 H     61.70107935     42.18250066     -0.29184449
 H     63.94420212     41.20008404     -0.02667020
 H     63.88082115     41.52731748      1.72180565
 H     63.77645563     43.94556016      1.26543981
 H     63.83983659     43.61832672     -0.48303604
 H     66.08295936     42.63591011     -0.21786174
 H     66.01957840     42.96314354      1.53061411
 H     65.91521287     45.38138622      1.07424827
 H     65.97859384     45.05415278     -0.67422758
 H     68.22171661     44.07173617     -0.40905329
 H     68.15833564     44.39896961      1.33942256
 H     68.05397012     46.81721228      0.88305672
 H     68.11735108     46.48997885     -0.86541913
 H     70.35941529     45.38232442     -0.46915456
 H     70.29129279     46.00982861      1.19513642
 H     70.20292714     48.31190942      0.32354302
 H     70.27104964     47.68440523     -1.34074796
 H     72.50731374     46.75178374     -0.89757799
 H     72.43919124     47.37928794      0.76671299
 H     72.35082559     49.68136874     -0.10488041
 H     72.41894809     49.05386455     -1.76917140
 H     74.65521219     48.12124307     -1.32600143
 H     74.58708970     48.74874726      0.33828956
 H     74.49872405     51.05082806     -0.53330385
 H     74.56684655     50.42332387     -2.19759483
 H     76.80311065     49.49070239     -1.75442486
 H     76.73498815     50.11820658     -0.09013388
 H     76.64662250     52.42028739     -0.96172728
 H     76.71474500     51.79278320     -2.62601826
 H     78.95213343     51.04492865     -2.36242245
 H     78.89135450     51.24156998     -0.59439961
 H     78.78061214     53.68671879     -0.87015856
 H     78.84139107     53.49007746     -2.63818140
 H     81.08724740     52.49612699     -2.45042790
 H     81.02646847     52.69276832     -0.68240505
 H     80.91572611     55.13791713     -0.95816400
 H     80.97650504     54.94127580     -2.72618685
 H     83.22236137     53.94732533     -2.53843334
 H     83.16158244     54.14396666     -0.77041050
 H     83.05084008     56.58911548     -1.04616945
 H     83.11161901     56.39247414     -2.81419229
 H     85.35747534     55.39852367     -2.62643878
 H     85.29669641     55.59516500     -0.85841594
 H     85.18595405     58.04031382     -1.13417489
 H     85.24673298     57.84367249     -2.90219773
 H     87.49258931     56.84972201     -2.71444422
 H     87.43181038     57.04636335     -0.94642138
 H     87.24258145     59.51843667     -1.28622959
 H     87.46897064     59.25408096     -3.03183283
 H     89.69467833     58.29247553     -2.59755199
 H     89.46828914     58.55683123     -0.85194876
 H     89.36618390     60.98811469     -1.23338662
 H     89.59257309     60.72375899     -2.97898986
 H     91.81828078     59.76215356     -2.54470902
 H     91.59189159     60.02650926     -0.79910578
 H     91.48978635     62.45779272     -1.18054365
 H     91.71617554     62.19343702     -2.92614689
 H     93.94188323     61.23183158     -2.49186605
 H     93.71549404     61.49618729     -0.74626281
 H     93.61338880     63.92747075     -1.12770068
 H     93.83977799     63.66311504     -2.87330391
 H     96.06548568     62.70150961     -2.43902308
 H     95.83909649     62.96586531     -0.69341984
 H     95.73699125     65.39714877     -1.07485770
 H     95.96338044     65.13279307     -2.82046094
 H     98.18908813     64.17118763     -2.38618011
 H     97.96269894     64.43554334     -0.64057687
 H     97.86059370     66.86682680     -1.02201473
 H     98.08698289     66.60247109     -2.76761797
 H    100.30987992     65.60047288     -2.29866237
 H    100.08217271     65.95507280     -0.56930556
 H     99.99625553     68.36429115     -1.07462211
 H    100.22396274     68.00969122     -2.80397892
 H    102.44273109     67.05754444     -2.31659499
 H    102.21502388     67.41214437     -0.58723817
 H    102.00749844     69.85426729     -1.22539244
 H    102.51726532     69.39076852     -2.86660337
 H    104.64542055     68.53914118     -1.96507922
 H    104.13565367     69.00263995     -0.32386830
 H    104.08857963     71.36876860     -1.00671441
 H    104.59834651     70.90526984     -2.64792533
 H    106.72650174     70.05364250     -1.74640118
 H    106.21673486     70.51714126     -0.10519026
 H    106.12669053     72.89303359     -0.84755364
 H    106.74638237     72.38947167     -2.43836289
 H    108.85873430     71.79188942     -1.54493875
 H    108.25397005     71.84025139      0.12843748
 H    108.00874620     74.28597128     -0.03087066
 H    108.61351045     74.23760931     -1.70424688
 H    110.78093732     73.39096634     -0.89646224
 H    110.17617307     73.43932831      0.77691398
 H    109.93094922     75.88504820      0.61760585
 H    110.53571347     75.83668623     -1.05577038
 H    112.70314035     74.99004326     -0.24798574
 H    112.09837610     75.03840523      1.42539049
 H    111.85315225     77.48412512      1.26608235
 H    112.45791650     77.43576315     -0.40729387
 H    114.62534337     76.58912019      0.40049077
 H    114.02057912     76.63748215      2.07386699
 H    113.77535527     79.08320204      1.91455886
 H    114.38011952     79.03484007      0.24118263
 H    116.54364637     78.15932000      1.06772254
 H    115.93462693     78.26698584      2.73678516
 H    115.71752549     80.70909069      2.50003534
 H    116.32654494     80.60142484      0.83097272
 H    118.48191657     79.75633154      1.67195430
 H    117.87289713     79.86399738      3.34101692
 H    117.65579569     82.30610223      3.10426710
 H    118.26481514     82.19843638      1.43520448
 H    120.42018677     81.35334308      2.27618606
 H    119.81116733     81.46100892      3.94524868
 H    119.59406589     83.90311377      3.70849886
 H    120.20308534     83.79544793      2.03943624
 H    122.35845697     82.95035462      2.88041782
 H    121.74943753     83.05802047      4.54948044
 H    121.53233609     85.50012531      4.31273062
 H    122.14135554     85.39245947      2.64366800
 H    124.29672717     84.54736616      3.48464958
 H    123.68770773     84.65503201      5.15371220
 H    123.47060629     87.09713685      4.91696238
 H    124.07962574     86.98947101      3.24789976
 H    126.23499737     86.14437770      4.08888134
 H    125.62597793     86.25204355      5.75794396
 H    125.40887649     88.69414839      5.52119414
 H    126.01789594     88.58648255      3.85213152
 H    128.17326757     87.74138924      4.69311310
 H    127.56424812     87.84905509      6.36217572
 H    127.34714669     90.29115993      6.12542590
 H    127.95616614     90.18349409      4.45636328
 H    130.07308443     89.15334793      5.45507383
 H    129.45369289     89.67589629      7.03986530
 H    129.44019501     92.01354598      6.26380390
 H    130.05958655     91.49099763      4.67901243
 H    132.12767941     90.69068113      5.75118080
 H    131.50828787     91.21322949      7.33597227
 H    131.49479000     93.55087918      6.55991088
 H    132.11418153     93.02833082      4.97511941
 H    134.18227439     92.22801433      6.04728778
 H    133.56288286     92.75056268      7.63207925
 H    133.72146370     95.04465533      7.05621164
 H    133.93248850     94.67797764      5.32725742
 H    136.15036853     93.71726611      5.80170560
 H    135.93934374     94.08394380      7.53065981
 H    135.86163656     96.49035006      7.01082324
 H    136.07266136     96.12367237      5.28186903
 H    138.29054140     95.16296084      5.75631721
 H    138.07951660     95.52963853      7.48527142
 H    138.00180943     97.93604479      6.96543485
 H    138.21283422     97.56936711      5.23648064
 H    140.43071426     96.60865557      5.71092881
 H    140.21968946     96.97533326      7.43988302
 H    140.14198229     99.38173953      6.92004645
 H    140.35300709     99.01506184      5.19109224
 H    142.57088712     98.05435030      5.66554042
 H    142.35986233     98.42102799      7.39449463
 H    142.28215515    100.82743426      6.87465806
 H    142.49317995    100.46075657      5.14570385
 H    144.71105999     99.50004503      5.62015202
 H    144.50003519     99.86672272      7.34910624
 H    144.42232801    102.27312899      6.82926966
 H    144.63335281    101.90645130      5.10031545
 H    146.84535736    100.87561917      5.64551992
 H    146.63399060    101.40828601      7.33070738
 H    146.65757320    103.73730810      6.64609913
 H    146.71520361    103.26751885      4.93021933
 H    148.93866752    102.26668014      5.27891649
 H    148.88103711    102.73646938      6.99479628
 H    148.82396278    105.11104963      6.34274508
 H    148.88159319    104.64126038      4.62686529
 H    151.10505709    103.64042166      4.97556244
 H    151.04742668    104.11021091      6.69144223
 H    150.99035235    106.48479116      6.03939103
 H    151.04798276    106.01500191      4.32351124
 H    153.27144667    105.01416319      4.67220839
 H    153.21381626    105.48395244      6.38808819
 H    153.15674192    107.85853268      5.73603698
 H    153.21437233    107.38874344      4.02015719
 H    155.43783624    106.38790472      4.36885434
 H    155.38020583    106.85769397      6.08473414
 H    155.32313150    109.23227421      5.43268294
 H    155.38076191    108.76248496      3.71680314
 H    157.60422581    107.76164625      4.06550030
 H    157.54659540    108.23143549      5.78138009
 H    157.48952107    110.60601574      5.12932889
 H    157.54715148    110.13622649      3.41344909
 H    159.77061538    109.13538777      3.76214625
 H    159.71298498    109.60517702      5.47802604
 H    159.65591064    111.97975726      4.82597484
 H    159.71354105    111.50996802      3.11009505
 H    161.93757902    110.53333345      3.43457228
 H    161.87993195    110.94605249      5.16506542
 H    161.82021815    113.34083919      4.59192452
 H    161.87786522    112.92812016      2.86143139
 H    164.10246058    111.91861953      3.17630205
 H    164.04481352    112.33133857      4.90679518
 H    163.98509972    114.72612527      4.33365428
 H    164.04274679    114.31340624      2.60316115
 H    166.26734215    113.30390561      2.91803181
 H    166.20969509    113.71662465      4.64852494
 H    166.14998129    116.11141135      4.07538404
 H    166.20762835    115.69869232      2.34489091
 H    168.43222372    114.68919169      2.65976157
 H    168.37457666    115.10191073      4.39025470
 H    168.31486286    117.49669744      3.81711381
 H    168.37250992    117.08397840      2.08662067
 H    170.59304606    115.93773605      2.56426189
 H    170.53652397    116.69564600      4.17380978
 H    170.49312455    118.92315384      3.12338849
 H    170.54964664    118.16524389      1.51384059
 H    172.76724852    117.22745072      2.03330713
 H    172.71072643    117.98536068      3.64285502
 H    172.82459372    120.18480507      2.70290980
 H    172.57725062    119.56030817      1.05454949
 H    174.75851225    118.61747258      0.97712646
 H    174.99447389    118.83194727      2.72829446
 H    175.04173048    121.27559255      2.42264086
 H    174.80576885    121.06111787      0.67147286
 H    176.96419556    119.88351047      0.52486276
 H    177.20015720    120.09798516      2.27603076
 H    177.24741379    122.54163044      1.97037716
 H    177.01145216    122.32715575      0.21920916
 H    179.16987887    121.14954836      0.07259906
 H    179.40584051    121.36402304      1.82376706
 H    179.55716662    123.76465215      1.56643661
 H    179.13617602    123.64786293     -0.15907603
 H    181.24069165    122.44307121     -0.59099093
 H    181.66168225    122.55986043      1.13452171
 H    181.73204892    125.01515882      0.95116977
 H    181.31105832    124.89836960     -0.77434287
 H    183.41557395    123.69357789     -1.20625777
 H    183.83656455    123.81036711      0.51925487
 H    183.90693122    126.26566550      0.33590293
 H    183.48594062    126.14887628     -1.38960971
 H    185.59045625    124.94408457     -1.82152461
 H    186.01144685    125.06087379     -0.09601197
 H    186.08181352    127.51617218     -0.27936391
 H    185.66082292    127.39938296     -2.00487655
 H    187.76533854    126.19459125     -2.43679145
 H    188.18632915    126.31138047     -0.71127881
 H    188.25466791    128.76754394     -0.89543102
 H    187.83716954    128.64886629     -2.62166316
 H    189.94299988    127.44444378     -3.04816589
 H    190.36049825    127.56312142     -1.32193375
 H    190.43030135    130.01826155     -1.50760573
 H    190.01280297    129.89958390     -3.23383786
 H    192.12076024    128.67300528     -3.64471144
 H    192.54053086    128.83820786     -1.92286145
 H    192.80208879    131.19782113     -2.11429487
 H    192.04726026    131.22276976     -3.72608832
 H    193.97555928    129.99858244     -4.64809041
 H    194.73038781    129.97363380     -3.03629697
 H    194.86386675    132.43303323     -3.06073871
 H    194.10903822    132.45798187     -4.67253216
 H    196.03733724    131.23379455     -5.59453425
 H    196.79216577    131.20884591     -3.98274081
 H    196.92564471    133.66824534     -4.00718255
 H    196.17081618    133.69319398     -5.61897600
 H    198.09911520    132.46900665     -6.54097809
 H    198.85394373    132.44405802     -4.92918465
 H    198.98742267    134.90345745     -4.95362639
 H    198.23259414    134.92840609     -6.56541984
 H    200.19753893    133.54579749     -7.38052507
 H    200.96430481    133.85353099     -5.80393481
 H    200.89896217    136.27597989     -6.24499182
 H    200.13219629    135.96824638     -7.82158208
 H    202.14572419    134.75989865     -8.56499363
 H    202.91249007    135.06763216     -6.98840337
 H    202.84714744    137.49008105     -7.42946039
 H    202.08038156    137.18234754     -9.00605064