152
Step 1 E=        -2.4178
 C      0.00000000      0.00000000      0.00000000
 C      1.54000000      0.00000000      0.00000000
 C      2.16637443      1.40686000      0.00000000
 C      3.70637443      1.40686000      0.00000000
 C      4.33274886      2.81372001      0.00000000
 C      5.87274886      2.81372001      0.00000000
 C      6.49912329      4.22058001      0.00000000
 C      8.03912329      4.22058001      0.00000000
 C      8.66549772      5.62744002      0.00000000
 C     10.20549772      5.62744002      0.00000000
 C     10.83187215      7.03430002      0.00000000
 C     12.37187215      7.03430002      0.00000000
 C     12.99824658      8.44116003      0.00000000
 C     14.53824658      8.44116003      0.00000000
 C     15.16462101      9.84802003      0.00000000
 C     16.70462101      9.84802003      0.00000000
 C     17.33099544     11.25488004      0.00000000
 C     18.87099544     11.25488004      0.00000000
 C     19.49736987     12.66174004      0.00000000
 C     21.03736987     12.66174004      0.00000000
 C     21.66374430     14.06860005      0.00000000
 C     23.20374430     14.06860005      0.00000000
 C     23.83011873     15.47546005      0.00000000
 C     25.37011873     15.47546005      0.00000000
 C     25.99649316     16.88232006      0.00000000
 C     27.53649316     16.88232006      0.00000000
 C     28.16286759     18.28918006      0.00000000
 C     29.70286759     18.28918006      0.00000000
 C     30.32924202     19.69604007      0.00000000
 C     31.86924202     19.69604007      0.00000000
 C     32.49561646     21.10290007      0.00000000
 C     34.03561646     21.10290007      0.00000000
 C     34.66199089     22.50976008      0.00000000
 C     36.20199089     22.50976008      0.00000000
 C     36.82836532     23.91662008      0.00000000
 C     38.36836532     23.91662008      0.00000000
 C     38.99473975     25.32348009      0.00000000
 C     40.53473975     25.32348009      0.00000000
 C     41.16111418     26.73034009      0.00000000
 C     42.70111418     26.73034009      0.00000000
 C     43.32748861     28.13720010      0.00000000
 C     44.86748861     28.13720010      0.00000000
 C     45.49386304     29.54406010      0.00000000
 C     47.03386304     29.54406010      0.00000000
 C     47.66023747     30.95092010      0.00000000
 C     49.20023747     30.95092010      0.00000000
 C     49.82661190     32.35778011      0.00000000
 C     51.36661190     32.35778011      0.00000000
 C     51.99298633     33.76464011      0.00000000
 C     53.53298633     33.76464011      0.00000000
 H     -0.36333333      0.00000000      1.02766186
 H     -0.36333333     -0.88998127     -0.51383093
 H     -0.36333333      0.88998127     -0.51383093
 H      1.88274777     -0.52778528     -0.88998127
 H      1.88274777     -0.52778528      0.88998127
 H      1.82362666      1.93464528      0.88998127
 H      1.82362666      1.93464528     -0.88998127
 H      4.04912220      0.87907473     -0.88998127
 H      4.04912220      0.87907473      0.88998127
 H      3.99000109      3.34150529      0.88998127
 H      3.99000109      3.34150529     -0.88998127
 H      6.21549663      2.28593473     -0.88998127
 H      6.21549663      2.28593473      0.88998127
 H      6.15637552      4.74836529      0.88998127
 H      6.15637552      4.74836529     -0.88998127
 H      8.38187106      3.69279473     -0.88998127
 H      8.38187106      3.69279473      0.88998127
 H      8.32274995      6.15522530      0.88998127
 H      8.32274995      6.15522530     -0.88998127
 H     10.54824549      5.09965474     -0.88998127
 H     10.54824549      5.09965474      0.88998127
 H     10.48912438      7.56208530      0.88998127
 H     10.48912438      7.56208530     -0.88998127
 H     12.71461992      6.50651474     -0.88998127
 H     12.71461992      6.50651474      0.88998127
 H     12.65549881      8.96894531      0.88998127
 H     12.65549881      8.96894531     -0.88998127
 H     14.88099435      7.91337475     -0.88998127
 H     14.88099435      7.91337475      0.88998127
 H     14.82187324     10.37580531      0.88998127
 H     14.82187324     10.37580531     -0.88998127
 H     17.04736878      9.32023475     -0.88998127
 H     17.04736878      9.32023475      0.88998127
 H     16.98824767     11.78266532      0.88998127
 H     16.98824767     11.78266532     -0.88998127
 H     19.21374321     10.72709476     -0.88998127
 H     19.21374321     10.72709476      0.88998127
 H     19.15462210     13.18952532      0.88998127
 H     19.15462210     13.18952532     -0.88998127
 H     21.38011764     12.13395476     -0.88998127
 H     21.38011764     12.13395476      0.88998127
 H     21.32099654     14.59638533      0.88998127
 H     21.32099654     14.59638533     -0.88998127
 H     23.54649207     13.54081477     -0.88998127
 H     23.54649207     13.54081477      0.88998127
 H     23.48737097     16.00324533      0.88998127
 H     23.48737097     16.00324533     -0.88998127
 H     25.71286650     14.94767477     -0.88998127
 H     25.71286650     14.94767477      0.88998127
 H     25.65374540     17.41010534      0.88998127
 H     25.65374540     17.41010534     -0.88998127
 H     27.87924093     16.35453478     -0.88998127
 H     27.87924093     16.35453478      0.88998127
 H     27.82011983     18.81696534      0.88998127
 H     27.82011983     18.81696534     -0.88998127
 H     30.04561536     17.76139478     -0.88998127
 H     30.04561536     17.76139478      0.88998127
 H     29.98649426     20.22382535      0.88998127
 H     29.98649426     20.22382535     -0.88998127
 H     32.21198979     19.16825479     -0.88998127
 H     32.21198979     19.16825479      0.88998127
 H     32.15286869     21.63068535      0.88998127
 H     32.15286869     21.63068535     -0.88998127
 H     34.37836422     20.57511479     -0.88998127
 H     34.37836422     20.57511479      0.88998127
 H     34.31924312     23.03754536      0.88998127
 H     34.31924312     23.03754536     -0.88998127
 H     36.54473865     21.98197480     -0.88998127
 H     36.54473865     21.98197480      0.88998127
 H     36.48561755     24.44440536      0.88998127
 H     36.48561755     24.44440536     -0.88998127
 H     38.71111308     23.38883480     -0.88998127
 H     38.71111308     23.38883480      0.88998127
 H     38.65199198     25.85126537      0.88998127
 H     38.65199198     25.85126537     -0.88998127
 H     40.87748751     24.79569481     -0.88998127
 H     40.87748751     24.79569481      0.88998127
 H     40.81836641     27.25812537      0.88998127
 H     40.81836641     27.25812537     -0.88998127
 H     43.04386194     26.20255481     -0.88998127
 H     43.04386194     26.20255481      0.88998127
 H     42.98474084     28.66498537      0.88998127
 H     42.98474084     28.66498537     -0.88998127
 H     45.21023637     27.60941482     -0.88998127
 H     45.21023637     27.60941482      0.88998127
 H     45.15111527     30.07184538      0.88998127
 H     45.15111527     30.07184538     -0.88998127
 H     47.37661081     29.01627482     -0.88998127
 H     47.37661081     29.01627482      0.88998127
 H     47.31748970     31.47870538      0.88998127
 H     47.31748970     31.47870538     -0.88998127
 H     49.54298524     30.42313483     -0.88998127
 H     49.54298524     30.42313483      0.88998127
 H     49.48386413     32.88556539      0.88998127
 H     49.48386413     32.88556539     -0.88998127
 H     51.70935967     31.82999483     -0.88998127
 H     51.70935967     31.82999483      0.88998127
 H     51.65023856     34.29242539      0.88998127
 H     51.65023856     34.29242539     -0.88998127
 H     53.89631966     33.76464011     -1.02766186
 H     53.89631966     32.87465884      0.51383093
 H     53.89631966     34.65462139      0.51383093
152
Step 10000 E=        20.3418
 C      0.00000000      0.00000000      0.00000000
 C      1.54000000      0.00000000      0.00000000
 C      2.16637443      0.84600966      1.12406527
 C      3.66535612      1.13870793      0.92662767
 C      4.21046934      2.25585925      1.83570661
 C      5.73876097      2.43152067      1.76451837
 C      6.30942742      3.38869191      2.82742148
 C      7.82094396      3.64900077      2.68901252
 C      8.56068963      3.77431621      4.03388143
 C     10.09435190      3.70243333      3.91424496
 C     10.83882485      3.96680575      5.23616298
 C     12.36710970      3.80486782      5.13756521
 C     13.12372248      4.21017312      6.41618349
 C     14.53549055      3.60500883      6.52703061
 C     15.31130915      4.05051547      7.78051748
 C     14.68649110      3.57566093      9.10555165
 C     15.31550851      2.28766202      9.66857556
 C     15.27419597      1.09374339      8.69674657
 C     15.64391368     -0.25383951      9.34399391
 C     14.75971874     -0.63496502     10.54588519
 C     13.24966116     -0.61319104     10.24446855
 C     12.35956660     -0.65349393     11.50053676
 C     10.92817609     -0.13391696     11.27083918
 C     10.25216360     -0.69825434     10.00745862
 C      8.78794886     -0.25547653      9.82962999
 C      8.04500081     -0.98854215      8.69726831
 C      6.58103465     -0.54516460      8.51888833
 C      6.41649947      0.94422440      8.16357355
 C      4.95271283      1.38680738      7.98177980
 C      4.77257651      2.90884019      7.83155644
 C      5.05286102      3.70303407      9.12085729
 C      4.92063945      5.22867903      8.95799257
 C      4.89719421      6.00111484     10.29005610
 C      3.51125906      6.05354800     10.95940990
 C      3.55575014      6.35440911     12.46907978
 C      4.36108468      7.61560969     12.83296080
 C      4.52462615      7.83893723     14.34787961
 C      5.24728620      9.14877412     14.71351576
 C      5.45331600      9.34921356     16.22645189
 C      6.41986630     10.49460243     16.58066205
 C      6.72020312     10.61779099     18.08605980
 C      7.73484003     11.72280839     18.43398001
 C      7.88052850     11.98646837     19.94423107
 C      6.55353977     12.31393634     20.65378421
 C      6.67292338     12.42535543     22.18510172
 C      5.35670035     12.80212208     22.89022856
 C      5.48236306     12.94054442     24.41883843
 C      4.40810505     13.84096663     25.05665469
 C      4.63585288     14.12388635     26.55321320
 C      3.52621952     14.96818950     27.20702205
 H     -0.36333333      0.00000000      1.02766186
 H     -0.36333333     -0.88998127     -0.51383093
 H     -0.36333333      0.88998127     -0.51383093
 H      1.88274777      1.02082751      0.16892354
 H      1.88274777      0.12018960      1.02770542
 H      1.82362666      0.45230625      2.08094644
 H      1.82362666      1.87447623      1.01057305
 H      3.78895003      1.67407863     -0.01475576
 H      4.11462903      1.30197413      1.90621840
 H      4.05253191      1.96117642      2.87316398
 H      3.65271688      3.16913124      1.62847135
 H      6.00933555      2.66497227      0.73476610
 H      6.20586759      1.49166686      2.05877374
 H      6.05486059      2.99790682      3.81260306
 H      5.84548570      4.36584576      2.69315145
 H      8.00582860      4.07997489      1.70505166
 H      8.30325711      3.37500239      3.62730827
 H      8.42209010      2.84658447      4.58904266
 H      8.12022755      4.60076205      4.59162728
 H     10.42574352      4.51207278      3.26404226
 H     10.35863788      2.74483549      3.46562564
 H     10.51671822      3.22356040      5.96550081
 H     10.56880076      4.96234430      5.58842708
 H     12.73838522      4.50497494      4.38916391
 H     12.70936645      3.24537077      6.00815315
 H     12.76558963      3.58962854      7.23762447
 H     12.90286785      5.25632170      6.62807114
 H     15.11757887      3.93298253      5.66580680
 H     14.44496688      2.51887729      6.51207280
 H     14.60878368      4.12262085      8.61079380
 H     15.40462103      5.13627973      7.75795903
 H     14.64803475      2.48638678      9.09540592
 H     13.67404629      3.97438579      9.16937951
 H     16.37711717      2.46948977      9.83598439
 H     15.36192759      1.55023398      8.86723595
 H     15.81302841      1.37059172      7.79059283
 H     14.23241329      0.88748374      8.45129636
 H     15.59631101     -0.13849919     10.42682843
 H     16.65351253     -0.17487665      9.74719986
 H     13.75602779     -0.24829152     10.36928372
 H     14.85329865      0.14522350     11.30129810
 H     13.05130732     -1.31705507      9.43617950
 H     12.74472695     -0.09595604     11.06031744
 H     12.59839103      0.21256662     12.11779036
 H     12.58590197     -1.56613091     12.05186791
 H     10.87459214      0.29128696     10.26862644
 H     10.86744670      0.26745708     10.25925091
 H     10.21265085     -1.78395167     10.09577654
 H     10.85843835     -0.42582064      9.14356580
 H      8.76326681      0.83284795      9.77448806
 H      8.22124081     -0.58815997     10.69926423
 H      8.05607684     -2.05647177      8.91522166
 H      8.57509296     -0.80285079      7.76312645
 H      6.50098417      0.50051454      8.81595239
 H      6.05059074     -0.73034707      9.45293154
 H      6.94840379      1.13501826      7.23149228
 H      5.49250442      1.30444598      8.61587162
 H      4.78920871      2.28392389      8.57889652
 H      4.51192275      0.79273511      7.18122859
 H      5.34048948      3.23692077      6.96096010
 H      5.50521572      3.40515620      8.46796057
 H      5.75955983      4.49905563      8.88628007
 H      4.37048231      3.35187679      9.89490371
 H      3.90474396      5.45180823      8.63200221
 H      5.62703061      5.55435939      8.19441950
 H      5.82448902      5.79246568     10.82361947
 H      4.04131368      5.65707059     10.87074713
 H      3.18381538      5.03152159     11.15004739
 H      2.81642317      6.53535463     10.27153967
 H      3.65482393      7.43184228     12.60107282
 H      3.70729746      7.42576319     12.60073789
 H      3.90936364      8.46865382     12.32663698
 H      4.89335000      7.42535308     13.76494581
 H      5.03531778      6.97286492     14.76884613
 H      3.53239559      7.92629083     14.79053960
 H      4.85411304      9.50262977     15.66656405
 H      6.23860660      9.13123260     14.26066241
 H      6.04343881      8.51484503     16.60550890
 H      5.58094517     10.41485405     16.41677041
 H      6.02250024     11.41981897     16.16331978
 H      7.16412297     10.11148448     17.27880433
 H      7.74209971     10.97846105     18.20329657
 H      7.77716265     10.85540791     18.20637087
 H      7.33708788     12.67565750     18.08473539
 H      8.42162679     11.33326446     19.18543159
 H      8.20239116     11.06219233     20.42404168
 H      6.95602041     11.68356620     20.43579497
 H      6.57445731     11.86190577     21.64541459
 H      6.12736893     13.20357629     20.19008261
 H      5.94781399     13.16117664     22.53278481
 H      7.04201843     11.47478587     22.57018140
 H      4.61340426     12.03913806     22.65900074
 H      5.59960642     13.36538164     23.79124760
 H      6.21977416     13.71401353     24.63347860
 H      5.82680240     11.98824499     24.82205963
 H      4.26959561     13.52871216     26.09174517
 H      4.48708155     14.83430630     24.61490930
 H      5.60371660     14.61230679     26.66628524
 H      4.64488737     13.17215227     27.08445759
 H      2.75282538     14.30907381     27.60139245
 H      3.09063717     15.63480855     26.46271898
 H      3.94980617     15.55827734     28.01971553
152
Step 20000 E=        18.4600
 C      0.00000000      0.00000000      0.00000000
 C      1.54000000      0.00000000      0.00000000
 C      2.16637443      1.20328743     -0.72894063
 C      3.70610106      1.21842529     -0.70418695
 C      4.33102618      2.46031758     -1.36658572
 C      5.84808057      2.34618505     -1.60558306
 C      6.43894995      3.49724056     -2.44077441
 C      5.52072386      3.98113708     -3.57844967
 C      5.41687514      2.99915017     -4.76019293
 C      4.55748900      3.51481936     -5.92944087
 C      3.04052212      3.40350978     -5.68856402
 C      2.18253328      3.79772087     -6.90513821
 C      0.66577529      3.75587273     -6.64190083
 C     -0.19018755      4.21704875     -7.83615553
 C     -1.70570777      4.20313946     -7.56301637
 C     -2.17653137      5.29827859     -6.58803154
 C     -3.69208990      5.56779058     -6.63326018
 C     -4.15276966      6.34730643     -7.87894441
 C     -5.62806673      6.78659150     -7.83282313
 C     -5.94233787      7.81087890     -6.72662740
 C     -5.29123888      9.18914323     -6.94584768
 C     -5.74121997     10.26207041     -5.93691543
 C     -5.24779695     11.68213435     -6.27090966
 C     -5.77739293     12.23074201     -7.60887743
 C     -5.17276101     13.58835425     -8.01249760
 C     -5.76426171     14.17759365     -9.30653155
 C     -5.02058737     15.42245914     -9.82504709
 C     -3.58083058     15.14187858    -10.29406195
 C     -2.80696515     16.40056300    -10.72816545
 C     -1.40643220     16.10917819    -11.29843060
 C     -0.39937914     15.59396421    -10.25344319
 C      1.05362413     15.53398726    -10.76018205
 C      2.02346585     14.82233477     -9.79864279
 C      1.88855625     15.26684764     -8.33037588
 C      2.91434253     14.61784561     -7.38266345
 C      3.12103351     13.11047477     -7.62080625
 C      4.17323960     12.46891922     -6.69729728
 C      5.61070398     12.96090102     -6.94879293
 C      6.62987879     12.48039371     -5.89903323
 C      6.74863455     10.94839477     -5.79667929
 C      7.54584986     10.46236798     -4.57200557
 C      7.18366691      9.03731370     -4.11413680
 C      5.90168786      8.95925198     -3.26440974
 C      5.35124309      7.53149967     -3.09081853
 C      3.96654510      7.47134098     -2.41955672
 C      2.78880041      7.64513084     -3.39644695
 C      1.40396774      7.47525463     -2.74454163
 C      1.01324879      6.00992315     -2.47669400
 C     -0.48776160      5.80203963     -2.20219036
 C     -0.84531549      4.38510367     -1.71634296
 H     -0.36333333      0.00000000      1.02766186
 H     -0.36333333     -0.88998127     -0.51383093
 H     -0.36333333      0.88998127     -0.51383093
 H      1.88274777      0.27050972     -0.99872341
 H      1.88274777      1.03457877     -0.01645388
 H      1.82362666      2.11583089     -0.24120259
 H      1.82362666      1.19357351     -1.76360464
 H      4.06551448      0.30527349     -1.17860848
 H      4.03533821      2.23316571     -0.48056950
 H      3.97109028      3.34585032     -0.84277476
 H      5.26633569      2.16205748     -1.84022801
 H      6.02978532      1.48603214     -2.24995901
 H      6.33574263      2.18890916     -0.64352796
 H      6.24365231      4.43433947     -1.91942572
 H      5.67116577      4.26121647     -2.56303747
 H      4.58267236      4.32200994     -3.14031148
 H      5.22972791      3.11668374     -4.17522581
 H      5.02857272      2.05201380     -4.38568801
 H      6.41620693      2.84643054     -5.16776218
 H      4.99602473      4.44396537     -6.29341082
 H      3.66977574      3.99430786     -5.51694123
 H      2.79139161      3.98193663     -4.79892569
 H      2.79626817      2.35465918     -5.52018221
 H      2.44636989      3.14437625     -7.73678180
 H      1.46189427      4.55096423     -6.58669848
 H      0.44035094      4.44305235     -5.82638379
 H      0.39692350      2.74151677     -6.34711155
 H      0.02837209      3.56911642     -8.68498731
 H      0.08704907      5.24240136     -8.08088370
 H     -1.87894219      4.61921720     -6.57056025
 H     -1.99806197      3.18539378     -7.30451541
 H     -2.96592212      5.87258451     -7.07293869
 H     -1.65616669      5.16019365     -5.64026936
 H     -4.21231082      4.64232047     -6.38632847
 H     -3.93508711      5.99665787     -7.60543568
 H     -3.88045780      5.77167945     -8.76359114
 H     -3.63360336      7.30559056     -7.89500250
 H     -5.93945884      6.83281613     -6.78927235
 H     -6.24825326      5.89531294     -7.73747538
 H     -5.18209136      8.59142288     -6.75623000
 H     -5.68698419      7.36591784     -5.76490803
 H     -5.64760500      9.58949896     -7.89496225
 H     -5.18580101      9.67647058     -5.97657222
 H     -5.48645255      9.91819675     -4.93444625
 H     -6.82213052     10.37684885     -6.01789873
 H     -4.78426381     11.66079457     -7.25720660
 H     -4.80786607     11.66644217     -7.26806290
 H     -6.86639369     12.24766409     -7.56539175
 H     -5.45596588     11.55996412     -8.40564695
 H     -4.09205490     13.47173482     -8.09357905
 H     -5.40245311     14.31197182     -7.23037284
 H     -6.83695375     14.30880799     -9.16435352
 H     -5.58903096     13.46986725    -10.11678924
 H     -3.95825461     15.29967466     -9.61416067
 H     -5.05591400     16.18971519     -9.05163247
 H     -3.61929503     14.40622117    -11.09744769
 H     -2.95751523     15.99110791    -10.01408422
 H     -1.76941087     16.29081439    -10.41267163
 H     -3.34930908     16.87037565    -11.54867696
 H     -1.51814837     15.45920402    -12.16627452
 H     -0.98856071     15.25705981    -10.76235441
 H      0.20502226     14.81345347    -10.71561409
 H     -0.30122311     16.34709276     -9.47161023
 H      1.35391461     16.53811237    -11.05961217
 H      1.44637350     14.53756573    -10.55771709
 H      1.67038116     13.80206860     -9.64868233
 H      1.60809542     14.87436467     -8.79223318
 H      0.86931097     15.06235264     -8.00262468
 H      2.87826374     15.24748156     -7.87408208
 H      3.37500106     13.77654269     -7.90045020
 H      3.33713784     13.74538014     -7.88080815
 H      3.46405847     12.96926853     -8.64574267
 H      3.38940496     12.64711429     -6.67139915
 H      5.07442829     12.28309252     -7.28161516
 H      5.04272120     13.12523079     -6.66046162
 H      6.09418649     13.11432415     -5.98401005
 H      6.29250951     12.12700634     -6.78187715
 H      6.56234403     11.39483918     -5.82754601
 H      7.10184770     11.57090064     -6.27074242
 H      7.05126730     10.56228512     -6.77004086
 H      6.53158010     10.65566464     -4.76940306
 H      6.92289063      9.76461379     -4.01239777
 H      6.88231328      9.86605061     -3.94572703
 H      6.94167023      9.06974091     -3.05183454
 H      6.14133978      8.84913587     -4.37151442
 H      5.07389089      9.34987930     -3.85623951
 H      5.88361119      7.99356286     -2.75921893
 H      4.72102212      7.51288135     -2.20167574
 H      5.13288733      7.12587969     -4.07869159
 H      3.28026610      8.09440454     -2.99306603
 H      4.04297391      7.93135505     -1.43434319
 H      2.84265912      6.85248331     -4.14271040
 H      1.93270144      8.02289788     -2.83744193
 H      0.94500050      6.57148460     -3.14535182
 H      1.39929066      6.53734102     -2.18920733
 H      0.19400936      5.99956414     -1.75777853
 H      1.01248206      5.47619377     -3.42707938
 H     -1.04664778      6.15267966     -3.06982957
 H     -0.76192984      6.39486592     -1.32955713
 H     -0.79308864      4.35015900     -0.62815583
 H     -0.14042428      3.66805468     -2.13713880
 H     -1.85550740      4.13420109     -2.03985524
152
Step 30000 E=        18.1085
 C      0.00000000      0.00000000      0.00000000
 C      1.54000000      0.00000000      0.00000000
 C      2.16637443     -0.83288698     -1.13382289
 C      3.67460040     -1.09181814     -0.96116986
 C      4.22942740     -2.19722595     -1.87868858
 C      5.56213723     -2.80042519     -1.39740366
 C      6.12577953     -3.89366518     -2.32408250
 C      5.06394411     -4.87663310     -2.85122538
 C      5.64216558     -6.21134441     -3.35699768
 C      4.57976366     -7.29488093     -3.61939200
 C      4.54164503     -8.40584950     -2.55360787
 C      3.28127253     -9.28870127     -2.61388989
 C      3.30469647    -10.48126748     -1.63980716
 C      2.12826606    -11.45891708     -1.81816842
 C      2.17352529    -12.67275397     -0.87151558
 C      2.07349362    -12.30710192      0.62109698
 C      1.49027957    -13.42707854      1.50263753
 C      0.09531192    -13.90852303      1.06232350
 C     -0.57340902    -14.88010109      2.05249943
 C     -0.59529889    -14.37528018      3.50724225
 C     -1.34472521    -13.04336091      3.69685040
 C     -1.52183317    -12.62839316      5.16927511
 C     -0.47843915    -11.60877869      5.66254508
 C     -0.30751160    -10.38986905      4.73699495
 C      0.59823906     -9.28662517      5.31498171
 C      0.81218155     -8.09156047      4.36753833
 C      1.45398657     -8.46819491      3.01926802
 C      1.87773243     -7.25734209      2.16728510
 C      3.04373924     -7.54668325      1.20379674
 C      3.20879777     -6.49857995      0.08762688
 C      2.04312938     -6.46584030     -0.91822863
 C      2.01254525     -5.20414516     -1.80071941
 C      0.79232875     -5.12391958     -2.73679394
 C      0.90899886     -6.00444301     -3.99483471
 C      1.90629865     -5.47302044     -5.04105801
 C      1.41738906     -4.22136057     -5.79333121
 C      2.53677669     -3.44531623     -6.51188985
 C      3.93185491     -3.63757662     -5.88867823
 C      4.86582012     -2.42479819     -6.05743093
 C      6.33331814     -2.70787133     -5.68605627
 C      7.18510532     -1.44022245     -5.48825610
 C      6.54160252     -0.39135923     -4.56230249
 C      7.40677314      0.86315452     -4.34032267
 C      6.72871096      1.94800204     -3.48303768
 C      6.56492056      1.56350823     -2.00083081
 C      5.60160885      2.47642354     -1.21966745
 C      4.13188269      2.36372113     -1.66554096
 C      3.19488404      3.38832635     -0.99934454
 C      1.73774793      3.31801773     -1.49271161
 C      0.71143191      3.89242738     -0.49856424
 H     -0.36333333      0.00000000      1.02766186
 H     -0.36333333     -0.88998127     -0.51383093
 H     -0.36333333      0.88998127     -0.51383093
 H      1.88274777     -1.01879507     -0.18077768
 H      1.88274777     -0.10823599     -1.02903301
 H      3.22726232     -0.96121944     -0.91900281
 H      1.82362666     -1.86260325     -1.03229268
 H      3.82576012     -1.62338075     -0.02165300
 H      4.11110482     -1.24578074     -1.94801302
 H      4.04774748     -1.90698522     -2.91350872
 H      4.91619352     -2.81250223     -1.29740776
 H      5.40807460     -3.22400764     -0.40496090
 H      6.29984729     -2.00003441     -1.34032057
 H      5.38009813     -4.11324905     -3.08817816
 H      5.48328743     -3.96373372     -3.20180359
 H      4.31669636     -4.30901398     -3.40577866
 H      5.49322477     -5.87853782     -2.84898079
 H      5.18257935     -7.02081691     -2.78986914
 H      6.34223047     -5.99748533     -4.16463215
 H      3.88302861     -6.91760219     -4.36793794
 H      4.17195631     -7.61440386     -2.66038300
 H      4.33178366     -7.94690949     -1.58746488
 H      5.52002870     -8.88537185     -2.52321527
 H      3.23676795     -9.75586146     -3.59769916
 H      2.91060860     -9.42676004     -1.59818913
 H      3.40352449    -10.09371979     -0.62583487
 H      4.16910412    -11.10119468     -1.87769302
 H      2.15670577    -11.84730407     -2.83622870
 H      1.19957265    -10.90927764     -1.66478973
 H      2.58368749    -12.34685125      0.08433713
 H      3.10095288    -13.21551773     -1.05423279
 H      1.15698692    -12.74198197      1.01983853
 H      2.90542352    -11.64790573      0.86899417
 H      2.12811999    -14.30577974      1.40701431
 H      0.57530873    -13.79026961      1.03464115
 H      0.16769446    -14.27960868      0.03999468
 H     -0.58613137    -13.05834513      1.09286153
 H      0.02408627    -14.90589429      2.96378099
 H      0.07059966    -15.75232367      2.16466266
 H     -0.80044352    -13.30482311      3.49552325
 H      0.43328856    -14.21211743      3.82893433
 H     -2.37426959    -13.17921059      3.36566582
 H     -0.95932786    -12.55785074      4.59342653
 H     -0.54434194    -12.64898760      5.65113273
 H     -2.08040803    -13.41187917      5.68137255
 H      0.24502915    -11.44505644      4.86386577
 H      0.22993377    -11.42517917      4.85470907
 H     -1.26945539     -9.88377319      4.65556322
 H     -0.00018155    -10.74643324      3.75388243
 H      1.58275948     -9.71496397      5.50298551
 H      0.16505825     -8.94507069      6.25508538
 H     -0.16046218     -7.65380860      4.14295544
 H      0.69009756     -8.44086155      3.34226555
 H      1.22188475     -7.68431702      2.29832128
 H      2.42295993     -8.92652563      3.21706481
 H      2.59836254     -6.67186538      2.73825733
 H      2.21035508     -7.62171639      1.19533164
 H      2.71125043     -7.33018734      0.18857228
 H      3.90269567     -7.86911758      1.79229478
 H      3.38077390     -5.52754877      0.55197874
 H      2.22225312     -6.11212856     -0.16827342
 H      1.54466868     -5.50016679     -0.83389829
 H      2.42277734     -6.09663420     -1.87093755
 H      1.90928181     -5.51537756     -2.84022461
 H      0.99329969     -4.81797916     -1.81141082
 H     -0.11002865     -5.13656945     -2.12549114
 H      0.76534887     -6.02932865     -3.34309956
 H      1.03049526     -7.04031225     -3.67811160
 H      1.92567033     -5.92056984     -4.37881963
 H      1.76464704     -4.39623766     -5.13365202
 H      1.72941669     -4.40545861     -5.17191865
 H      1.23353906     -3.43286080     -5.06355912
 H      2.05696489     -4.07273769     -6.66336224
 H      3.22229413     -3.05667636     -5.75881290
 H      3.48840141     -3.92411067     -6.28109496
 H      4.65725339     -3.10064519     -6.49990788
 H      4.20016762     -2.72282694     -5.36015074
 H      5.84904931     -2.69297078     -5.67085129
 H      5.84075121     -2.78592824     -6.38483655