62
Step 1 E=         0.3502
 C      0.00000000      0.00000000      0.00000000
 C      1.54000000      0.00000000      0.00000000
 C      2.16637443      1.40686000      0.00000000
 C      3.67349648      1.42149821     -0.31617850
 C      4.29987091      2.82835821     -0.31617850
 C      5.80699297      2.84299642     -0.63235699
 C      6.43336740      4.24985642     -0.63235699
 C      7.94048945      4.26449463     -0.94853549
 C      8.56686388      5.67135463     -0.94853549
 C     10.07398593      5.68599284     -1.26471398
 C     10.70036036      7.09285284     -1.26471398
 C     12.17989813      7.11977237     -1.69114492
 C     12.80627256      8.52663237     -1.69114492
 C     14.28581032      8.55355189     -2.11757585
 C     14.99709705      9.88829446     -1.82751815
 C     16.47663481      9.91521398     -2.25394908
 C     17.18792154     11.24995655     -1.96389137
 C     18.66745930     11.27687607     -2.39032231
 C     19.35017892     12.64371814     -2.19735421
 C     20.69800502     12.77963002     -2.92981086
 H     -0.36333333      0.00000000      1.02766186
 H     -0.36333333     -0.88998127     -0.51383093
 H     -0.36333333      0.88998127     -0.51383093
 H      1.88274777     -0.52778528     -0.88998127
 H      1.88274777     -0.52778528      0.88998127
 H      2.01868355      1.84780036      0.98582910
 H      1.65323818      2.01050713     -0.74859958
 H      3.82118736      0.98055785     -1.30200759
 H      4.18663274      0.81785109      0.43242109
 H      4.15218004      3.26929857      0.66965060
 H      3.78673466      3.43200534     -1.06477808
 H      5.95468384      2.40205606     -1.61818609
 H      6.32012922      2.23934930      0.11624259
 H      6.28567652      4.69079678      0.35347210
 H      5.92023114      4.85350355     -1.38095658
 H      8.08818033      3.82355427     -1.93436458
 H      8.45362570      3.66084751     -0.19993590
 H      8.41917300      6.11229499      0.03729361
 H      8.05372763      6.27500176     -1.69713507
 H     10.22167681      5.24505248     -2.25054308
 H     10.58712219      5.08234572     -0.51611440
 H     10.62673374      7.50081767     -0.25662479
 H     10.13385641      7.72026080     -1.95285099
 H     12.25352475      6.71180754     -2.69923411
 H     12.74640208      6.49236442     -1.00300791
 H     12.73264594      8.93459720     -0.68305572
 H     12.23976861      9.15404032     -2.37928192
 H     14.33700729      8.36380281     -3.18971118
 H     14.81103402      7.76203809     -1.58302373
 H     14.94590008     10.07804354     -0.75538282
 H     14.47187335     10.67980826     -2.36207026
 H     16.52783178      9.72546490     -3.32608441
 H     17.00185851      9.12370018     -1.71939696
 H     17.13672457     11.43970563     -0.89175605
 H     16.66269784     12.04147035     -2.49844349
 H     18.72482403     11.01107313     -3.44585918
 H     19.20794921     10.53733180     -1.79952207
 H     19.52269021     12.79324874     -1.13153037
 H     18.67863658     13.41775752     -2.56882955
 H     21.01599863     13.82211003     -2.91513127
 H     20.58547909     12.44859675     -3.96221335
 H     21.44651816     12.16438064     -2.43051508
62
Step 10000 E=         8.6760
 C      0.00000000      0.00000000      0.00000000
 C      1.54000000      0.00000000      0.00000000
 C      2.16637443     -0.79245201     -1.16244350
 C      1.92409918     -2.31141810     -1.08731203
 C      2.44183566     -3.08958366     -2.31124311
 C      3.89422924     -3.58223065     -2.17177330
 C      4.24137515     -4.77462942     -3.08241862
 C      5.63796784     -5.37150988     -2.82773731
 C      5.91867009     -6.66600102     -3.61329377
 C      7.29144904     -7.29588029     -3.31274421
 C      7.51836678     -8.65802238     -3.99441661
 C      8.87243077     -9.30942308     -3.65709208
 C      9.24341619    -10.49225517     -4.57080871
 C     10.26544983    -11.46451161     -3.95293763
 C     10.56025781    -12.70007073     -4.82361663
 C     11.95740691    -13.30696155     -4.59721450
 C     12.29292348    -13.57208667     -3.11777633
 C     11.29282442    -14.50166703     -2.40553885
 C     11.42584529    -14.50694994     -0.87130368
 C     10.45870094    -15.47296726     -0.16204890
 H     -0.36333333      0.00000000      1.02766186
 H     -0.36333333     -0.88998127     -0.51383093
 H     -0.36333333      0.88998127     -0.51383093
 H      1.88274777     -1.02925842     -0.10607106
 H      1.88274777      0.03849761     -1.03399318
 H      2.80031701     -1.57340727     -0.74253197
 H      1.61983960     -1.72908888     -1.27249378
 H      1.82603077     -2.69352909     -2.10341920
 H      1.86060896     -2.69907634     -2.10406671
 H      3.41070773     -2.67813371     -2.59425523
 H      1.93925379     -2.70584221     -3.19907979
 H      3.94759505     -4.60327316     -2.54956198
 H      4.29225395     -3.76289944     -3.17028976
 H      4.07934117     -4.47394977     -4.11752090
 H      4.89285135     -5.45060117     -2.52857662
 H      5.52278762     -6.43412061     -2.61398056
 H      5.95603626     -5.89604745     -3.72873277
 H      5.82807731     -6.44767633     -4.67735546
 H      6.59238437     -7.28635440     -3.02221785
 H      7.33806915     -7.52418898     -2.24794295
 H      7.50983152     -8.02860485     -4.08961216
 H      7.51584320     -8.50580899     -5.07373339
 H      7.78791408     -9.38433584     -3.22766175
 H      8.83029302    -10.35866406     -3.94935526
 H      9.30502407     -9.69793172     -4.57905958
 H     10.22220948    -10.86484498     -4.26874824
 H      8.46621809    -11.25125797     -4.48148984
 H     10.34932426    -12.33376175     -4.60521768
 H     10.15093570    -12.43483778     -4.43610803
 H     11.63584740    -12.87652767     -4.81525094
 H     11.09205712    -13.43025316     -4.21359768
 H     12.35921849    -12.90473389     -3.66723581
 H     11.99636502    -13.70938503     -3.58497065
 H     11.37652394    -13.86562923     -2.60577569
 H     12.23881555    -12.62599593     -2.57918126
 H     11.22132193    -15.42857129     -2.97460465
 H     11.12547870    -14.11825285     -1.39901563
 H     11.02195376    -13.56948938     -0.48902194
 H     11.39333837    -15.54096775     -0.52801013
 H     10.74604341    -15.57126734      0.88478986
 H     10.50224260    -16.44964641     -0.64402603
 H      9.44327958    -15.08172755     -0.22490553
62
Step 20000 E=        11.0145
 C      0.00000000      0.00000000      0.00000000
 C      1.54000000      0.00000000      0.00000000
 C      2.16637443      1.20308935     -0.72926749
 C      3.69035858      1.09441706     -0.92230284
 C      4.23447675      1.93143075     -2.09488269
 C      4.60660936      3.37629727     -1.71346683
 C      5.28351398      4.16884650     -2.84716249
 C      5.72558052      5.58741141     -2.44237767
 C      4.58529997      6.46711830     -1.89696401
 C      4.95975614      7.95282090     -1.74181772
 C      6.22623940      8.19495445     -0.89980139
 C      6.71011240      9.65695995     -0.90241536
 C      7.96277345      9.90370236     -0.04127747
 C      8.43153425     11.37051510     -0.02328578
 C      7.38200987     12.35686035      0.52189458
 C      7.98215201     13.54742326      1.29260164
 C      8.52822563     13.18093733      2.68511436
 C      9.73152577     14.03276876      3.13014469
 C     10.38961306     13.55275528      4.43709082
 C     11.38148903     14.56117104      5.04608976
 H     -0.36333333      0.00000000      1.02766186
 H     -0.36333333     -0.88998127     -0.51383093
 H     -0.36333333      0.88998127     -0.51383093
 H      1.88274777      0.16086458     -1.02212844
 H      1.88274777      1.03046372      0.09364024
 H      2.97134461      1.59830921     -0.10965127
 H      3.10008320      0.87766195     -1.18794488
 H      3.91422000      1.25104558     -1.97750593
 H      3.91747085      1.28533573     -1.97114510
 H      3.69958244      2.88093837     -2.11545817
 H      3.74816333      1.59529092     -3.01063881
 H      5.37332378      3.72656658     -2.40452428
 H      4.32475102      4.03173825     -2.53751355
 H      5.22635946      5.23006576     -2.60499098
 H      6.02150945      4.83778511     -2.40446188
 H      5.03343061      6.30219993     -2.88746853
 H      5.08222430      5.92855488     -1.63132039
 H      5.00224087      7.14682250     -1.15382036
 H      4.71916342      7.47853161     -2.28066142
 H      5.47076596      8.07963534     -0.78741369
 H      6.01409553      8.01420295     -1.47218705
 H      7.07428711      7.75039900     -1.42065218
 H      6.02624989      9.01255086     -0.20724071
 H      7.21128390      9.85381661      0.04530537
 H      7.79327753      9.65972034     -0.78057258
 H      8.45417460     10.80728624     -0.40205591
 H      7.88919931     10.90073712      0.39301334
 H      7.59939829     11.99224513      0.30701939
 H      7.55129935     12.01098697      0.03223276
 H      7.85843716     12.98112869      1.27780864
 H      7.75851943     13.37011540      0.38169915
 H      7.76285674     13.41543381      2.35212435
 H      8.57763802     13.15651103      2.11763743
 H      9.56616497     13.50863672      2.74338132
 H      8.60511858     14.09463112      3.27447937
 H     10.57514035     13.36651171      3.31046658
 H     10.39111300     13.40672723      3.73107455
 H     11.25084199     14.18900428      4.64098280
 H     10.39602050     14.38342305      5.14281740
 H     11.64688808     14.24563178      6.05509834
 H     10.91955140     15.54773348      5.08361536
 H     12.28006970     14.60389667      4.43060027
62
Step 30000 E=        13.6597
 C      0.00000000      0.00000000      0.00000000
 C      1.54000000      0.00000000      0.00000000
 C      2.16637443      1.17105010      0.77967733
 C      3.66652054      0.99316445      1.07887350
 C      3.98884992     -0.22713238      1.96124498
 C      5.48136799     -0.36884938      2.31324796
 C      5.82925953     -1.67390771      3.05310891
 C      5.69801563     -2.93969851      2.18584385
 C      6.97625535     -3.30015090      1.40624313
 C      7.51093359     -2.16078607      0.51879343
 C      9.03757303     -2.18691864      0.31807190
 C      9.56095384     -1.10741652     -0.64750964
 C      9.54251554      0.31744608     -0.06353481
 C      8.13331218      0.83626967      0.27788571
 C      8.12742564      2.13708515      1.10216991
 C      9.30030493      3.08387166      0.78665528
 C      9.50586322      4.19628099      1.83159128
 C     10.85272613      4.93236922      1.70615429
 C     12.08263755      4.01602610      1.84483800
 C     13.38452889      4.62745192      1.29453136
 H     -0.36333333      0.00000000      1.02766186
 H     -0.36333333     -0.88998127     -0.51383093
 H     -0.36333333      0.88998127     -0.51383093
 H      1.88274777      0.99373606     -0.28829258
 H      1.88274777      0.35269664      0.97274305
 H      2.65063997      0.76996989      1.67002645
 H      3.23816200      1.18046254      0.58147841
 H      3.76700080      0.49621836      2.04378194
 H      3.76662993      0.46532755      2.02727548
 H      4.82442025     -0.76384278      1.51195201
 H      4.58137547      0.11140987      2.81118769
 H      5.57604648     -1.09829900      3.11763545
 H      5.79378153     -1.38637775      2.07844211
 H      5.37281845     -2.50490683      2.51533385
 H      6.25363294     -2.37348920      2.33297494
 H      6.07316095     -2.71197666      1.18809200
 H      6.67816959     -3.41167621      2.11776114
 H      6.87603353     -2.92061108      0.38938271
 H      7.54612268     -2.38583020      1.24080769
 H      8.52712575     -1.92706624      0.83632853
 H      8.48881008     -2.45394422      0.13680405
 H      9.24573075     -2.06246482     -0.74460472
 H      9.42577699     -1.18678729      0.51077629
 H      9.06912350     -0.16488547     -0.40701402
 H     10.02510680     -0.31650349     -0.05834191
 H      8.55828126      0.74938906     -0.24466494
 H      8.72133759      0.38479545      0.65006931
 H      8.23639724      1.71165978      0.91910768
 H      8.21530643      1.52070033      1.12223849
 H      9.11547124      2.59195410      1.03174172
 H      8.41682778      2.95906064      0.44741599
 H      9.02911362      4.08699218      1.11575173
 H      9.54019999      3.64513375      1.68972517
 H     10.57645522      4.36765577      1.94367815
 H      9.80110305      5.10650470      1.30964661
 H     11.45641720      4.41747977      0.95879498
 H     11.59959278      4.22233669      1.35098670
 H     12.87330969      4.40405525      1.20267685
 H     12.92277039      4.61960953      2.18829665
 H     14.23252458      4.01785726      1.60661735
 H     13.50260792      5.63954298      1.68160890
 H     13.33992273      4.65771795      0.20586509
62
Step 40000 E=         7.3745
 C      0.00000000      0.00000000      0.00000000
 C      1.54000000      0.00000000      0.00000000
 C      2.16637443     -0.30308321     -1.37382519
 C      3.69240495     -0.50642840     -1.33533383
 C      4.49596738      0.80218919     -1.21954347
 C      4.31065093      1.75864085     -2.41221191
 C      5.32108716      2.92029851     -2.44641897
 C      5.03259727      4.03182824     -1.42032189
 C      6.23851504      4.94451677     -1.12987054
 C      6.88051582      5.55415088     -2.38994247
 C      7.69007150      6.83661452     -2.12253524
 C      6.85911779      7.98968509     -1.52962362
 C      6.20630265      8.89944113     -2.58687304
 C      5.19920514      8.17589244     -3.50001700
 C      4.03477330      7.50940830     -2.74404254
 C      3.33898590      6.38396742     -3.53199096
 C      2.16890416      5.72343336     -2.77952602
 C      1.63695891      4.44266413     -3.44905157
 C      0.35505390      3.88446474     -2.80350299
 C     -0.01283623      2.46324977     -3.26869636
 H     -0.36333333      0.00000000      1.02766186
 H     -0.36333333     -0.88998127     -0.51383093
 H     -0.36333333      0.88998127     -0.51383093
 H      1.88274777     -0.91590920     -0.48138790
 H      1.88274777      0.42042680     -0.94544449
 H      2.96428691      0.41751215     -1.55320750
 H      3.10540011     -0.83269138     -1.21305840
 H      4.16690478      0.37849967     -1.75942369
 H      4.16797422      0.39259188     -1.72737516
 H      5.03359767      0.95816073     -2.15481163
 H      3.81827950      1.63734475     -1.39661501
 H      4.79439659      2.70513951     -2.17090208
 H      5.29274001      1.97923117     -2.83047137
 H      4.85837116      3.79084732     -1.98151180
 H      5.41577643      3.32202054     -1.43758135
 H      5.83081636      4.02866889     -0.67807105
 H      5.66542125      4.88769292     -1.65511853
 H      7.01989869      4.72162756     -1.85641028
 H      6.30177835      5.69116687     -1.92145843
 H      6.95590368      6.63233979     -2.24878525
 H      7.70003230      6.20161633     -2.07804307
 H      7.10318708      7.68966777     -2.46307426
 H      7.52493082      7.13667078     -1.08774310
 H      6.87322331      8.82040752     -2.23517396
 H      6.04314512      8.21286820     -2.21699391
 H      5.86534435      8.27516226     -3.41278062
 H      5.18864282      8.54907355     -2.75924187
 H      4.46074893      7.67958898     -2.87036210
 H      4.63752182      7.46434990     -2.89477401
 H      3.43416555      6.95171931     -3.46261983
 H      4.07643441      6.43587095     -2.92811294
 H      3.02761260      5.61357538     -2.82655295
 H      2.38078294      6.17448123     -3.05653051
 H      1.60752263      5.11299880     -3.48685935
 H      2.40344037      4.66819238     -2.63967168
 H      0.58433747      4.59305211     -3.68878384
 H      0.56204212      4.38710386     -3.27710114
 H      0.03213147      3.01619015     -3.37788992
 H      0.53756571      2.84802641     -2.51962796
 H     -0.80004561      2.06399240     -2.62916923
 H      0.86614747      1.82167107     -3.20653191
 H     -0.36500033      2.49816097     -4.29964818
62
Step 50000 E=         8.0321
 C      0.00000000      0.00000000      0.00000000
 C      1.54000000      0.00000000      0.00000000
 C      2.16637443      1.01707550      0.97201466
 C      3.60739168      1.42300290      0.61105452
 C      4.41990544      1.97119204      1.79887187
 C      4.11717282      3.44231125      2.13910892
 C      2.64043945      3.71522838      2.48024640
 C      2.32799681      5.19476355      2.77171730
 C      0.89494733      5.44451355      3.27728049
 C      0.60862152      6.91126918      3.64909425
 C     -0.73093851      7.12242970      4.37888199
 C     -0.64961901      6.93230686      5.90493587
 C     -2.01837358      6.93801064      6.61068256
 C     -2.63233480      8.34069287      6.77540714
 C     -4.09551300      8.33154996      7.25564246
 C     -4.75614744      9.72247230      7.27793939
 C     -6.25474905      9.69853041      7.63180381
 C     -6.97430753     11.04042352      7.40124259
 C     -8.41110731     11.08376172      7.95380769
 C     -9.14592301     12.41013872      7.68479106
 H     -0.36333333      0.00000000      1.02766186
 H     -0.36333333     -0.88998127     -0.51383093
 H     -0.36333333      0.88998127     -0.51383093
 H      1.88274777      1.02879113     -0.11051144
 H      1.88274777      0.17759018      1.01935553
 H      3.11033201      0.60920868      1.33352363
 H      2.95756793      1.55140933      0.44608673
 H      3.91750868      2.22164073      1.28492770
 H      3.92986257      2.19743241      1.30702252
 H      4.86139611      2.92258719      1.50216786
 H      3.72879048      2.43866056      2.50025143
 H      3.04829777      3.61133708      2.00858540
 H      3.46847061      3.46509595      3.01476085
 H      2.58142984      4.66456106      3.01258590
 H      2.38584658      4.71420215      2.12622115
 H      1.38233996      5.44640194      2.29160143
 H      1.58711630      5.23778811      3.57005618
 H      0.94664034      6.10962475      4.13928683
 H      0.61946493      6.47058209      3.03357411
 H     -0.47130371      7.05903917      3.65414685
 H     -0.13031924      6.92378608      4.45028703
 H     -0.84714521      6.32992020      5.11815508
 H     -0.57488167      7.84561714      5.17934821
 H     -1.50384895      7.43459734      6.35891329
 H     -1.55040352      6.41441727      6.23429532
 H     -2.17296610      7.92314788      7.05080272
 H     -2.61544228      7.74919975      6.19405180
 H     -3.68219417      8.22580257      7.04502820
 H     -3.71789559      8.24268088      6.76823769
 H     -4.37774360      9.35211373      7.51428404
 H     -4.66444739      9.02335385      6.63449752
 H     -5.77791074      9.62252778      6.91172790
 H     -5.71180791      9.63975534      7.79559853
 H     -6.57492573     10.72011840      7.83660829
 H     -6.81323567     10.09802994      6.78528576
 H     -7.36952120     11.38597669      8.35649081
 H     -7.73009561     11.16182579      8.17722318
 H     -8.74495032     12.12136248      7.95959569
 H     -9.05532445     11.53405580      7.19861266
 H    -10.20390737     12.29350084      7.91966270
 H     -9.03452321     12.68074744      6.63480963
 H     -8.71943526     13.19496719      8.30949297
62
Step 60000 E=        14.5429
 C      0.00000000      0.00000000      0.00000000
 C      1.54000000      0.00000000      0.00000000
 C      2.16637443      1.00065526      0.98891057
 C      1.44484421      1.07368676      2.34746147
 C      2.12341454      2.00651860      3.36773941
 C      1.85884902      1.62659654      4.83650226
 C      3.01865233      1.96785218      5.79044192
 C      4.38463661      1.42025971      5.33675762
 C      5.14994309      2.35724185      4.38388277
 C      6.38647216      1.71240216      3.73060057
 C      7.29452424      2.71014601      2.98793737
 C      8.63474058      2.11095457      2.52276020
 C      9.53553372      3.10404789      1.76517367
 C     10.37698736      4.01140338      2.68183162
 C     11.30501332      4.97916009      1.92432600
 C     12.37668113      5.64150447      2.81000542
 C     13.61957867      6.12043548      2.03706894
 C     14.10600432      5.13341159      0.95967675
 C     14.74892954      3.85405155      1.52667327
 C     16.08782799      4.09306090      2.24904816
 H     -0.36333333      0.00000000      1.02766186
 H     -0.36333333     -0.88998127     -0.51383093
 H     -0.36333333      0.88998127     -0.51383093
 H      1.88274777      1.03049752     -0.09326753
 H      1.88274777      0.16049488      1.02218656
 H      1.38753372      1.68676340      1.32172100
 H      1.89648149      0.69738261      2.00048533
 H      2.18519576      1.29038358      3.11754074
 H      2.17944536      1.32458646      3.11264805
 H      1.37899883      2.30775399      4.10476212
 H      2.67307888      1.39236076      4.08102705
 H      2.81730577      1.56012486      5.35132473
 H      2.18497916      2.45275898      5.46832086
 H      3.83133724      1.26497026      5.60713822
 H      3.92889603      2.07181135      5.19989226
 H      4.45066124      1.51875970      4.25322705
 H      5.04802230      2.26498317      5.15111897
 H      6.21752946      2.23338551      4.56559397
 H      5.63792573      1.74816997      3.62295939
 H      6.65496601      2.29888174      2.85193524
 H      7.13065232      2.49093791      3.56273757
 H      8.31323725      2.58524322      3.35498384
 H      7.58390374      2.26665523      2.03521735
 H      8.95311027      2.63965435      1.62430749
 H      9.38254419      2.90397847      2.52107034
 H      9.75160048      3.94360437      2.42590060
 H     10.44448850      3.25526173      2.34744130
 H     11.04768440      4.60180113      2.05757528
 H     11.22260022      4.38941042      2.10724519
 H     11.81922866      5.60344164      2.65504833
 H     12.32080824      4.84013577      2.29437048
 H     13.35791499      5.38358530      2.41156117
 H     13.06748460      6.18389427      2.16447938
 H     14.12254746      5.24711034      1.62182734
 H     13.41346776      6.03548524      0.97010983
 H     13.68627104      4.15178942      1.17954463
 H     14.09803108      4.13001682      1.38539420
 H     15.78898266      4.07177769      1.76954125
 H     15.12134675      4.07221836      2.52757719
 H     16.37479086      3.19137717      2.79008307
 H     15.97916668      4.91927833      2.95165578
 H     16.85718832      4.33769614      1.51669696
62
Step 70000 E=         5.5626
 C      0.00000000      0.00000000      0.00000000
 C      1.54000000      0.00000000      0.00000000
 C      2.16637443      1.38625866      0.23987913
 C      3.69895127      1.41525970      0.09166590
 C      4.29551402      2.83365918      0.02957080
 C      3.96677445      3.59519349     -1.26796370
 C      4.59495758      4.99904570     -1.34660797
 C      4.35812045      5.71698396     -2.68827590
 C      5.04600399      7.09078749     -2.79353806
 C      6.58449904      7.02275546     -2.79138953
 C      7.27244015      8.40021321     -2.82216584
 C      8.80314659      8.33256448     -2.97696064
 C      9.27207152      7.86627489     -4.36774583
 C     10.77081013      7.51958195     -4.43976372
 C     11.20272889      6.88137924     -5.77308420
 C     12.71284900      6.98461147     -6.05677482
 C     13.14841061      6.32506303     -7.37847143
 C     14.63930285      6.51734714     -7.71293690
 C     15.12547145      7.97363453     -7.59265753
 C     16.51304360      8.22394038     -8.21200436
 H     -0.36333333      0.00000000      1.02766186
 H     -0.36333333     -0.88998127     -0.51383093
 H     -0.36333333      0.88998127     -0.51383093
 H      1.88274777      0.79244674     -0.66532107
 H      1.88274777      0.71574647      0.74721547
 H      2.93661071      1.28664988      1.00467594
 H      3.12493991      1.42345416     -0.27768122
 H      3.97481411      2.32664571     -0.43878224
 H      3.97748219      2.34309588     -0.40797452
 H      4.80264097      2.95057120     -0.92816290
 H      3.49920703      3.52909607     -0.23568889
 H      4.12742857      4.65871174     -1.09127421
 H      4.88090326      4.06543870     -1.63036949
 H      4.70121689      5.26862069     -2.39738782
 H      3.96902412      5.61917383     -1.98828421
 H      4.05173422      6.74192062     -2.47915313
 H      5.22655694      6.34025339     -2.90147366
 H      5.87875655      7.11189076     -2.09056023
 H      6.01124600      6.95432559     -3.28117114
 H      6.96691321      7.89548312     -3.32073425
 H      6.96956993      7.98310777     -2.44854284
 H      8.16299942      8.35263749     -2.19547554
 H      7.90121799      8.44951383     -3.71115846
 H      9.03960592      7.56380266     -3.71261835
 H      9.05233857      8.54670814     -4.01626130
 H     10.34395546      8.04774201     -4.44670460
 H     10.06678674      7.13248259     -4.23329665
 H     10.95983632      7.01059145     -5.38490803
 H     10.91451809      6.78245349     -5.22975718
 H     12.19801010      7.24916007     -6.02258885
 H     12.14546551      6.35815747     -5.61312594
 H     13.03068824      6.07043196     -6.55812702
 H     12.88099659      6.74966655     -7.10778731
 H     14.04551892      6.83133113     -7.73482700
 H     14.03086661      5.71583122     -7.18300275
 H     15.10873697      7.05526635     -6.88930195
 H     14.99970332      7.39665663     -7.17905833
 H     16.19456823      7.99661955     -7.80385357
 H     15.56498386      8.26806983     -8.54567206
 H     16.69703398      9.29675190     -8.26964963
 H     16.54656702      7.79521830     -9.21358989
 H     17.27764258      7.75701546     -7.59114243
62
Step 80000 E=         9.7341
 C      0.00000000      0.00000000      0.00000000
 C      1.54000000      0.00000000      0.00000000
 C      2.16637443     -1.22592782     -0.69018552
 C      2.04534739     -2.53037755      0.11935965
 C      2.53057142     -3.78261980     -0.63432927
 C      1.57308798     -4.25631401     -1.74358093
 C      0.14195297     -4.54599908     -1.25415766
 C     -0.86702806     -4.80678673     -2.38797735
 C     -2.32186598     -4.96378631     -1.90797969
 C     -3.34808483     -5.08826430     -3.04946122
 C     -4.75029845     -5.52511476     -2.58625646
 C     -5.89255474     -5.02510373     -3.49004821
 C     -7.28285945     -5.55581977     -3.09382441
 C     -8.02235894     -6.28506683     -4.23089926
 C     -9.50786535     -6.56299594     -3.93488216
 C    -10.31028274     -7.04663714     -5.15710044
 C    -11.75689722     -7.46277297     -4.83192740
 C    -12.74811213     -7.23930533     -5.98914615
 C    -14.21853971     -7.50110062     -5.61377171
 C    -15.22227611     -7.14120569     -6.72489226
 H     -0.36333333      0.00000000      1.02766186
 H     -0.36333333     -0.88998127     -0.51383093
 H     -0.36333333      0.88998127     -0.51383093
 H      1.88274777     -0.96947254      0.36158951
 H      1.88274777     -0.42424889     -0.94373558
 H      2.87853819     -1.68037990     -0.00142134
 H      1.68845173     -2.12268828     -0.29583722
 H      1.90327521     -3.35519119     -0.57892250
 H      1.93803598     -3.35927015     -0.58029835
 H      1.71071923     -4.49999626     -0.67057025
 H      2.48298505     -3.57874272     -1.70403468
 H      0.73300706     -4.76919281     -1.27526546
 H      0.62499443     -3.73174575     -1.62506197
 H     -0.54693254     -4.35492720     -2.07697495
 H     -0.32976719     -5.22983905     -1.95980842
 H     -1.48970426     -5.65523808     -2.10424392
 H     -1.82949480     -4.38862054     -2.09319807
 H     -2.95745992     -4.33153840     -2.52796592
 H     -2.87177033     -5.52951024     -2.66008450
 H     -4.07593949     -5.85154724     -2.77427628
 H     -4.34795399     -5.03282662     -2.61900990
 H     -5.42087184     -4.66989819     -2.67013690
 H     -5.25525181     -6.00281677     -3.42585332
 H     -6.68000276     -5.77875652     -3.49580045
 H     -6.79961398     -4.95618607     -2.88955352
 H     -7.87983550     -5.66268374     -3.99952838
 H     -7.46763773     -6.47784519     -3.64502864
 H     -9.03791407     -6.49874009     -3.89759531
 H     -8.92234935     -6.74047737     -3.81771829
 H    -10.04317997     -6.61094354     -4.88316444
 H     -9.80032753     -7.46732456     -4.46850714
 H    -10.97865660     -7.84486775     -4.83429357
 H    -11.36782687     -7.05052556     -4.89312072
 H    -12.42794847     -6.91613024     -5.49447699
 H    -12.11427682     -8.11286102     -5.63052953
 H    -13.53430682     -6.56868558     -5.64235073
 H    -13.71887200     -6.98372181     -5.56440817
 H    -14.85323464     -6.97780969     -6.32891431
 H    -14.71183125     -7.96855483     -6.46597475
 H    -16.20505636     -7.53706560     -6.46888853
 H    -14.89056617     -7.57449661     -7.66846393
 H    -15.28164259     -6.05732404     -6.82376678
62
Step 90000 E=         6.7565
 C      0.00000000      0.00000000      0.00000000
 C      1.54000000      0.00000000      0.00000000
 C      2.16637443     -1.33821008     -0.43410696
 C      2.14390381     -1.57603440     -1.95546644
 C      2.55329121     -0.34667572     -2.78773996
 C      2.38803428     -0.53562687     -4.30714366
 C      2.82784549      0.68192006     -5.14125731
 C      1.80452556      1.83263688     -5.15760097
 C      2.34097821      3.13925730     -5.77124715
 C      3.30429728      3.91350478     -4.85246686
 C      2.78607033      4.09710689     -3.41394988
 C      3.87647358      4.49303439     -2.40110133
 C      4.72204166      3.30909330     -1.89622697
 C      3.91748697      2.25182432     -1.11746253
 C      4.78861393      1.19286007     -0.41651136
 C      5.68403783      0.38476330     -1.37400582
 C      6.31301974     -0.86784372     -0.73607368
 C      7.15673183     -1.71055239     -1.71054379
 C      7.37670084     -3.16438118     -1.25272779
 C      8.14491507     -4.03124113     -2.26761730
 H     -0.36333333      0.00000000      1.02766186
 H     -0.36333333     -0.88998127     -0.51383093
 H     -0.36333333      0.88998127     -0.51383093
 H      1.88274777     -0.87881461      0.54617657