602
Step 1 E=        -4.3005
 C      0.00000000      0.00000000      0.00000000
 C      1.54000000      0.00000000      0.00000000
 C      2.16637443      1.40686000      0.00000000
 C      3.67349648      1.42149821     -0.31617850
 C      4.29987091      2.82835821     -0.31617850
 C      5.80699297      2.84299642     -0.63235699
 C      6.43336740      4.24985642     -0.63235699
 C      7.94048945      4.26449463     -0.94853549
 C      8.56686388      5.67135463     -0.94853549
 C     10.07398593      5.68599284     -1.26471398
 C     10.70036036      7.09285284     -1.26471398
 C     12.17989813      7.11977237     -1.69114492
 C     12.80627256      8.52663237     -1.69114492
 C     14.28581032      8.55355189     -2.11757585
 C     14.99709705      9.88829446     -1.82751815
 C     16.47663481      9.91521398     -2.25394908
 C     17.18792154     11.24995655     -1.96389137
 C     18.66745930     11.27687607     -2.39032231
 C     19.35017892     12.64371814     -2.19735421
 C     20.69800502     12.77963002     -2.92981086
 C     21.46495960     14.07255427     -2.59555416
 C     22.81278571     14.20846615     -3.32801082
 C     23.71671232     15.32558377     -2.77432780
 C     25.12921608     15.34998198     -3.38738396
 C     26.03314270     16.46709960     -2.83370093
 C     27.44564646     16.49149781     -3.44675709
 C     28.34957307     17.60861543     -2.89307406
 C     29.76207683     17.63301364     -3.50613022
 C     30.66600345     18.75013126     -2.95244720
 C     32.07850721     18.77452947     -3.56550336
 C     32.98243382     19.89164709     -3.01182033
 C     34.43353760     19.83498766     -3.52435085
 C     35.33746422     20.95210528     -2.97066782
 C     36.78856800     20.89544584     -3.48319834
 C     37.69249461     22.01256346     -2.92951531
 C     39.13279198     21.98032204     -3.47366969
 C     40.03671859     23.09743966     -2.91998667
 C     41.47701596     23.06519825     -3.46414105
 C     42.38094257     24.18231587     -2.91045802
 C     43.82123994     24.15007445     -3.45461240
 C     44.72516656     25.26719207     -2.90092937
 C     46.16546392     25.23495065     -3.44508375
 C     47.06939054     26.35206827     -2.89140073
 C     48.50968790     26.31982685     -3.43555511
 C     49.41361452     27.43694447     -2.88187208
 C     50.85391188     27.40470306     -3.42602646
 C     51.75783850     28.52182068     -2.87234343
 C     53.23812417     28.38714261     -3.27510411
 C     54.14205078     29.50426023     -2.72142108
 C     55.62233645     29.36958217     -3.12418177
 C     56.52626306     30.48669979     -2.57049874
 C     58.00654873     30.35202173     -2.97325942
 C     58.90944681     31.47236395     -2.42443489
 C     60.38973248     31.33768589     -2.82719557
 C     61.29263056     32.45802811     -2.27837104
 C     62.77291622     32.32335005     -2.68113172
 C     63.60320859     33.59983940     -2.45137206
 C     65.04283693     33.51639354     -2.99184134
 C     65.87312930     34.79288289     -2.76208167
 C     67.31275763     34.70943703     -3.30255095
 C     68.14305000     35.98592638     -3.07279129
 C     69.58267834     35.90248052     -3.61326057
 C     70.31005651     37.25869164     -3.66993837
 C     71.74968485     37.17524578     -4.21040765
 C     72.47706302     38.53145690     -4.26708545
 C     73.91669136     38.44801104     -4.80755473
 C     74.53999396     39.81564538     -5.14321852
 C     75.97962229     39.73219951     -5.68368780
 C     76.60292489     41.09983385     -6.01935160
 C     78.04255323     41.01638798     -6.55982088
 C     78.66585583     42.38402232     -6.89548467
 C     80.10548416     42.30057645     -7.43595395
 C     80.72878676     43.66821079     -7.77161775
 C     82.16841510     43.58476492     -8.31208703
 C     82.79171770     44.95239926     -8.64775083
 C     84.06449161     44.86592315     -9.51040281
 C     84.68779421     46.23355748     -9.84606661
 C     85.96056813     46.14708137    -10.70871859
 C     86.58387073     47.51471571    -11.04438239
 C     87.82317714     47.43177191    -11.95478886
 C     88.44647974     48.79940625    -12.29045266
 C     89.68578615     48.71646246    -13.20085913
 C     90.30908876     50.08409680    -13.53652292
 C     91.54839517     50.00115300    -14.44692939
 C     92.17169777     51.36878734    -14.78259319
 C     93.41100418     51.28584355    -15.69299966
 C     94.03430678     52.65347789    -16.02866345
 C     95.27361320     52.57053410    -16.93906992
 C     95.89691580     53.93816843    -17.27473372
 C     97.13622221     53.85522464    -18.18514019
 C     97.75952481     55.22285898    -18.52080398
 C     98.77070087     55.18242774    -19.68161762
 C     99.39400347     56.55006208    -20.01728142
 C    100.16707767     56.57621910    -21.34892405
 C    100.79038027     57.94385344    -21.68458784
 C    101.38184259     58.03129111    -23.10378726
 C    102.00514519     59.39892545    -23.43945105
 C    102.75352260     59.43293663    -24.78495263
 C    103.37682520     60.80057097    -25.12061642
 C    104.12520262     60.83458216    -26.46611800
 C    104.74850522     62.20221650    -26.80178179
 C    105.49688263     62.23622769    -28.14728337
 C    106.12018523     63.60386202    -28.48294716
 C    106.86856265     63.63787321    -29.82844874
 C    107.49186525     65.00550755    -30.16411253
 C    108.24024266     65.03951874    -31.50961411
 C    108.86354526     66.40715308    -31.84527790
 C    109.61192267     66.44116427    -33.19077948
 C    110.23522527     67.80879860    -33.52644328
 C    110.98360269     67.84280979    -34.87194485
 C    111.42247270     69.25272781    -35.30912251
 C    112.17085011     69.28673899    -36.65462409
 C    112.45612732     70.70708196    -37.17696762
 C    113.12251674     70.74196255    -38.56488278
 C    113.40779395     72.16230551    -39.08722632
 C    114.07418337     72.19718610    -40.47514148
 C    114.35946058     73.61752907    -40.99748501
 C    115.02585000     73.65240965    -42.38540017
 C    115.31112720     75.07275262    -42.90774371
 C    115.97751662     75.10763321    -44.29565887
 C    116.26279383     76.52797617    -44.81800241
 C    116.92918325     76.56285676    -46.20591757
 C    117.21446046     77.98319973    -46.72826110
 C    117.88084988     78.01808031    -48.11617626
 C    118.16612708     79.43842328    -48.63851980
 C    118.83251650     79.47330387    -50.02643496
 C    119.11779371     80.89364683    -50.54877849
 C    119.78418313     80.92852742    -51.93669365
 C    120.13150948     82.34566471    -52.42932567
 C    120.79789889     82.38054530    -53.81724083
 C    121.14522524     83.79768259    -54.30987284
 C    121.81161466     83.83256318    -55.69778800
 C    122.15894100     85.24970047    -56.19042002
 C    122.82533042     85.28458106    -57.57833517
 C    123.17265677     86.70171835    -58.07096719
 C    123.83904618     86.73659894    -59.45888235
 C    124.18637253     88.15373623    -59.95151436
 C    124.85276195     88.18861682    -61.33942952
 C    125.20008829     89.60575411    -61.83206154
 C    125.86647771     89.64063470    -63.21997670
 C    126.21380406     91.05777199    -63.71260871
 C    126.88019348     91.09265258    -65.10052387
 C    127.22751982     92.50978987    -65.59315588
 C    127.89390924     92.54467046    -66.98107104
 C    128.24123559     93.96180775    -67.47370306
 C    128.90545145     93.99686051    -68.86265539
 C    129.25277780     95.41399780    -69.35528741
 C    129.91699366     95.44905056    -70.74423974
 C    130.26432001     96.86618785    -71.23687176
 C    130.92853587     96.90124060    -72.62582409
 C    131.27586222     98.31837790    -73.11845611
 C    131.94007808     98.35343065    -74.50740844
 C    132.28740443     99.77056795    -75.00004046
 C    132.95162029     99.80562070    -76.38899279
 C    133.29894664    101.22275799    -76.88162481
 C    133.70527726    101.28797660    -78.36562008
 C    134.05260360    102.70511389    -78.85825209
 C    134.45893422    102.77033249    -80.34224736
 C    134.80626056    104.18746979    -80.83487938
 C    135.21259118    104.25268839    -82.31887465
 C    135.55991753    105.66982568    -82.81150666
 C    135.96624814    105.73504428    -84.29550193
 C    136.31357449    107.15218158    -84.78813395
 C    136.71990511    107.21740018    -86.27212922
 C    137.06723145    108.63453747    -86.76476123
 C    137.39554605    108.71241679    -88.26734046
 C    137.74287240    110.12955408    -88.75997248
 C    138.07118700    110.20743339    -90.26255171
 C    138.41851334    111.62457069    -90.75518372
 C    138.74682794    111.70245000    -92.25776295
 C    139.09415429    113.11958729    -92.75039496
 C    139.42246889    113.19746661    -94.25297419
 C    139.76979523    114.61460390    -94.74560621
 C    140.09810983    114.69248322    -96.24818543
 C    140.44543618    116.10962051    -96.74081745
 C    140.55718362    116.23064114    -98.27198253
 C    140.90450996    117.64777843    -98.76461455
 C    141.29330440    117.71570656   -100.25317918
 C    141.64063075    119.13284385   -100.74581119
 C    142.02942519    119.20077198   -102.23437582
 C    142.37675154    120.61790927   -102.72700783
 C    142.76554598    120.68583739   -104.21557246
 C    143.11287232    122.10297469   -104.70820448
 C    143.50166677    122.17090281   -106.19676911
 C    143.84899311    123.58804010   -106.68940112
 C    144.23778755    123.65596823   -108.17796575
 C    144.58511390    125.07310552   -108.67059776
 C    144.97390834    125.14103365   -110.15916239
 C    145.32123468    126.55817094   -110.65179441
 C    145.71002913    126.62609906   -112.14035903
 C    146.05735547    128.04323636   -112.63299105
 C    146.44614991    128.11116448   -114.12155568
 C    146.79347626    129.52830177   -114.61418769
 C    146.89629626    129.65134917   -116.14581669
 C    147.24362260    131.06848646   -116.63844871
 C    147.16568251    131.23682455   -118.16723503
 C    147.51300885    132.65396184   -118.65986705
 C    147.43506876    132.82229993   -120.18865337
 C    147.78239511    134.23943722   -120.68128539
 C    147.70445501    134.40777531   -122.21007171
 H     -0.36333333      0.00000000      1.02766186
 H     -0.36333333     -0.88998127     -0.51383093
 H     -0.36333333      0.88998127     -0.51383093
 H      1.88274777     -0.52778528     -0.88998127
 H      1.88274777     -0.52778528      0.88998127
 H      2.01868355      1.84780036      0.98582910
 H      1.65323818      2.01050713     -0.74859958
 H      3.82118736      0.98055785     -1.30200759
 H      4.18663274      0.81785109      0.43242109
 H      4.15218004      3.26929857      0.66965060
 H      3.78673466      3.43200534     -1.06477808
 H      5.95468384      2.40205606     -1.61818609
 H      6.32012922      2.23934930      0.11624259
 H      6.28567652      4.69079678      0.35347210
 H      5.92023114      4.85350355     -1.38095658
 H      8.08818033      3.82355427     -1.93436458
 H      8.45362570      3.66084751     -0.19993590
 H      8.41917300      6.11229499      0.03729361
 H      8.05372763      6.27500176     -1.69713507
 H     10.22167681      5.24505248     -2.25054308
 H     10.58712219      5.08234572     -0.51611440
 H     10.62673374      7.50081767     -0.25662479
 H     10.13385641      7.72026080     -1.95285099
 H     12.25352475      6.71180754     -2.69923411
 H     12.74640208      6.49236442     -1.00300791
 H     12.73264594      8.93459720     -0.68305572
 H     12.23976861      9.15404032     -2.37928192
 H     14.33700729      8.36380281     -3.18971118
 H     14.81103402      7.76203809     -1.58302373
 H     14.94590008     10.07804354     -0.75538282
 H     14.47187335     10.67980826     -2.36207026
 H     16.52783178      9.72546490     -3.32608441
 H     17.00185851      9.12370018     -1.71939696
 H     17.13672457     11.43970563     -0.89175605
 H     16.66269784     12.04147035     -2.49844349
 H     18.72482403     11.01107313     -3.44585918
 H     19.20794921     10.53733180     -1.79952207
 H     19.52269021     12.79324874     -1.13153037
 H     18.67863658     13.41775752     -2.56882955
 H     20.50824504     12.76140011     -4.00301113
 H     21.32359435     11.92975067     -2.65696828
 H     21.65471958     14.09078418     -1.52235389
 H     20.83937027     14.92243362     -2.86839675
 H     22.61228639     14.41888984     -4.37854492
 H     23.34634391     13.26184136     -3.24247052
 H     23.81279321     15.18661936     -1.69750035
 H     23.23904473     16.28441827     -2.97574793
 H     25.03313519     15.48894639     -4.46421140
 H     25.60688367     14.39114748     -3.18596382
 H     26.12922359     16.32813519     -1.75687348
 H     25.55547511     17.42593410     -3.03512106
 H     27.34956556     16.63046223     -4.52358454
 H     27.92331404     15.53266331     -3.24533695
 H     28.44565396     17.46965102     -1.81624661
 H     27.87190548     18.56744994     -3.09449420
 H     29.66599594     17.77197806     -4.58295767
 H     30.23974442     16.67417914     -3.30471009
 H     30.76208434     18.61116685     -1.87561975
 H     30.18833586     19.70896577     -3.15386733
 H     31.98242632     18.91349389     -4.64233081
 H     32.55617480     17.81569497     -3.36408322
 H     32.99946780     19.81163897     -1.92489414
 H     32.55485146     20.85234306     -3.29876385
 H     34.41650363     19.91499578     -4.61127704
 H     34.86111996     18.87429169     -3.23740733
 H     35.35449819     20.87209715     -1.88374163
 H     34.90988186     21.91280125     -3.25761134
 H     36.77153402     20.97545396     -4.57012453
 H     37.21615036     19.93474987     -3.19625482
 H     37.73364817     21.91411031     -1.84475112
 H     37.24890075     22.97338356     -3.19056937
 H     39.09163842     22.07877520     -4.55843389
 H     39.57638584     21.01950194     -3.21261563
 H     40.07787215     22.99898651     -1.83522247
 H     39.59312473     24.05825976     -3.18104073
 H     41.43586240     23.16365140     -4.54890524
 H     41.92060982     22.10437815     -3.20308699
 H     42.42209613     24.08386271     -1.82569382
 H     41.93734871     25.14313597     -3.17151208
 H     43.78008639     24.24852760     -4.53937660
 H     44.26483380     23.18925435     -3.19355834
 H     44.76632011     25.16873891     -1.81616518
 H     44.28157269     26.22801217     -3.16198343
 H     46.12431037     25.33340381     -4.52984795
 H     46.60905778     24.27413055     -3.18402969
 H     47.11054409     26.25361512     -1.80663653
 H     46.62579668     27.31288837     -3.15245479
 H     48.46853435     26.41828001     -4.52031930
 H     48.95328177     25.35900675     -3.17450105
 H     49.45476807     27.33849132     -1.79710788
 H     48.97002066     28.39776457     -3.14292614
 H     50.81275833     27.50315621     -4.51079065
 H     51.29750575     26.44388296     -3.16497240
 H     51.69580792     28.50520333     -1.78423679
 H     51.38742545     29.47766343     -3.24282798
 H     53.30015475     28.40375995     -4.36321076
 H     53.60853721     27.43129986     -2.90461956
 H     54.08002020     29.48764289     -1.63331444
 H     53.77163774     30.46010299     -3.09190564
 H     55.68436703     29.38619951     -4.21228841
 H     55.99274950     28.41373942     -2.75369721
 H     56.46423248     30.47008245     -1.48239209
 H     56.15585002     31.44254255     -2.94098329
 H     58.06816289     30.36430488     -4.06144728
 H     58.37814992     29.39809374     -2.59904831
 H     58.84783266     31.46008081     -1.33624703
 H     58.53784562     32.42629194     -2.79864600
 H     60.45134663     31.34996903     -3.91538343
 H     60.76133366     30.38375790     -2.45298446
 H     61.23101640     32.44574496     -1.19018318
 H     60.92102937     33.41195610     -2.65258215
 H     62.81828293     32.07102776     -3.74055389
 H     63.21524110     31.51686992     -2.09629114
 H     63.65013822     33.78981121     -1.37908090
 H     63.09909267     34.43023037     -2.94575852
 H     64.99590730     33.32642173     -4.06413249
 H     65.54695285     32.68600257     -2.49745487
 H     65.92005893     34.98285470     -1.68979052
 H     65.36901338     35.62327386     -3.25646814
 H     67.26582800     34.51946522     -4.37484211
 H     67.81687355     33.87904606     -2.80816449
 H     68.18997964     36.17589819     -2.00050014
 H     67.63893408     36.81631735     -3.56717775
 H     69.54683928     35.49036194     -4.62171178
 H     70.15292047     35.23442088     -2.96779932
 H     70.34589557     37.67081022     -2.66148716
 H     69.73981438     37.92675128     -4.31539962
 H     71.71384579     36.76312720     -5.21885886
 H     72.31992698     36.50718614     -3.56494639
 H     72.51290208     38.94357549     -3.25863424
 H     71.90682089     39.19951654     -4.91254670
 H     73.90779721     37.84351671     -5.71453185
 H     74.53807673     37.96375628     -4.05424367
 H     74.54888810     40.42013971     -4.23624140
 H     73.91860858     40.29990013     -5.89652958
 H     75.97072815     39.12770518     -6.59066492
 H     76.60100766     39.24794475     -4.93037674
 H     76.61181904     41.70432818     -5.11237448
 H     75.98153952     41.58408860     -6.77266266
 H     78.03365908     40.41189365     -7.46679800
 H     78.66393860     40.53213323     -5.80650982
 H     78.67474997     42.98851665     -5.98850755
 H     78.04447045     42.86827707     -7.64879573
 H     80.09659002     41.69608212     -8.34293108
 H     80.72686954     41.81632170     -6.68264290
 H     80.73768091     44.27270512     -6.86464063
 H     80.10740139     44.15246555     -8.52492881
 H     82.15952095     42.98027059     -9.21906415
 H     82.78980047     43.10051017     -7.55877597
 H     83.04462652     45.45253211     -7.71286888
 H     82.05150894     45.54328910     -9.18723223
 H     83.81158279     44.36579030    -10.44528476
 H     84.80470038     44.27503331     -8.97092141
 H     84.94070304     46.73369033     -8.91118466
 H     83.94758545     46.82444732    -10.38554801
 H     85.70765930     45.64694852    -11.64360054
 H     86.70077689     45.55619153    -10.16923719
 H     86.87567619     47.99668170    -10.11129164
 H     85.82987607     48.12112209    -11.54624229
 H     87.53137168     46.94980592    -12.88787961
 H     88.57717180     46.82536553    -11.45292896
 H     88.73828520     49.28137225    -11.35736190
 H     87.69248508     49.40581264    -12.79231255
 H     89.39398069     48.23449647    -14.13394988
 H     90.43978081     48.11005607    -12.69899923
 H     90.60089422     50.56606279    -12.60343217
 H     89.55509410     50.69050318    -14.03838282
 H     91.25658971     49.51918701    -15.38002014
 H     92.30238983     49.39474662    -13.94506949
 H     92.46350323     51.85075334    -13.84950243
 H     91.41770311     51.97519373    -15.28445308
 H     93.11919872     50.80387756    -16.62609041
 H     94.16499884     50.67943717    -15.19113976
 H     94.32611225     53.13544388    -15.09557270
 H     93.28031213     53.25988427    -16.53052335
 H     94.98180774     52.08856810    -17.87216067
 H     96.02760785     51.96412771    -16.43721002
 H     96.18872126     54.42013443    -16.34164296
 H     95.14292114     54.54457482    -17.77659361
 H     96.84441675     53.37325865    -19.11823094
 H     97.89021687     53.24881826    -17.68328029
 H     98.27172981     55.59330651    -17.63282050
 H     96.95629740     55.90888655    -18.78967549
 H     98.25849587     54.81198021    -20.56960110
 H     99.57392828     54.49640016    -19.41274611
 H    100.08232240     56.81895942    -19.21602536
 H     98.59331053     57.28767850    -20.07125208
 H     99.47875874     56.30732176    -22.15018010
 H    100.96777060     55.83860267    -21.29495338
 H    101.58757063     58.14230184    -20.96820403
 H    100.01707975     58.70593978    -21.58799219
 H    100.58465223     57.83284270    -23.82017107
 H    102.15514311     57.26920477    -23.20038291
 H    102.70943210     59.65792255    -22.64888135
 H    101.20701434     60.14054911    -23.47233696
 H    102.04923570     59.17393953    -25.57552233
 H    103.55165346     58.69131297    -24.75206672
 H    104.08111211     61.05956807    -24.33004672
 H    102.57869435     61.54219464    -25.15350233
 H    103.42091571     60.57558506    -27.25668770
 H    104.92333347     60.09295849    -26.43323209
 H    105.45279213     62.46121360    -26.01121209
 H    103.95037437     62.94384016    -26.83466770
 H    104.79259572     61.97723059    -28.93785307
 H    106.29501348     61.49460402    -28.11439746
 H    106.82447214     63.86285913    -27.69237746
 H    105.32205438     64.34548569    -28.51583307
 H    106.16427574     63.37887611    -30.61901844
 H    107.66669350     62.89624955    -29.79556283
 H    108.19615216     65.26450465    -29.37354283
 H    106.69373439     65.74713122    -30.19699844
 H    107.53595575     64.78052164    -32.30018381
 H    109.03837351     64.29789507    -31.47672820
 H    109.56783217     66.66615018    -31.05470820
 H    108.06541441     67.14877674    -31.87816381
 H    108.90763577     66.18216716    -33.98134918
 H    110.41005353     65.69954060    -33.15789357
 H    110.93951218     68.06779570    -32.73587357
 H    109.43709442     68.55042227    -33.55932918
 H    110.32655375     67.43480585    -35.64000701
 H    111.87287580     67.21846742    -34.78540038
 H    112.07952164     69.66073175    -34.54106035
 H    110.53319959     69.87707017    -35.39566698
 H    111.56684965     68.76375103    -37.39608685
 H    113.12231582     68.76955878    -36.53077885
 H    113.11544528     71.20718146    -36.46753100
 H    111.51085992     71.24649833    -37.23696370
 H    112.46319878     70.24186305    -39.27431940
 H    114.06778414     70.20254618    -38.50488670
 H    114.06711191     72.66240501    -38.37778970
 H    112.46252655     72.70172188    -39.14722240
 H    113.41486541     71.69708660    -41.18457810
 H    115.01945077     71.65776973    -40.41514540
 H    115.01877854     74.11762857    -40.28804840
 H    113.41419318     74.15694543    -41.05748109
 H    114.36653204     73.15231015    -43.09483679
 H    115.97111739     73.11299329    -42.32540409
 H    115.97044516     75.57285212    -42.19830709
 H    114.36585981     75.61216899    -42.96773979
 H    115.31819866     74.60753371    -45.00509549
 H    116.92278402     74.56821684    -44.23566279
 H    116.92211179     77.02807568    -44.10856579
 H    115.31752643     77.06739254    -44.87799849
 H    116.26986529     76.06275726    -46.91535418
 H    117.87445065     76.02344039    -46.14592149
 H    117.87377842     78.48329923    -46.01882448
 H    116.26919306     78.52261609    -46.78825718
 H    117.22153192     77.51798081    -48.82561288
 H    118.82611727     77.47866395    -48.05618018
 H    118.82544504     79.93852278    -47.92908318
 H    117.22085969     79.97783965    -48.69851588
 H    118.17319854     78.97320437    -50.73587158
 H    119.77778390     78.93388750    -49.96643888
 H    119.77711167     81.39374634    -49.83934188
 H    118.17252631     81.43306320    -50.60877458
 H    119.10298929     80.47313968    -52.65551001
 H    120.70477079     80.34680452    -51.88961046
 H    120.81270332     82.80105245    -51.71050931
 H    119.21092182     82.92738762    -52.47640886
 H    120.11670505     81.92515756    -54.53605719
 H    121.71848655     81.79882240    -53.77015764
 H    121.82641908     84.25307033    -53.59105648
 H    120.22463758     84.37940550    -54.35695603
 H    121.13042082     83.37717544    -56.41660436
 H    122.73220232     83.25084028    -55.65070481
 H    122.84013484     85.70508821    -55.47160366
 H    121.23835334     85.83142338    -56.23750321
 H    122.14413658     84.82919332    -58.29715153
 H    123.74591808     84.70285816    -57.53125198
 H    123.85385061     87.15710609    -57.35215083
 H    122.25206911     87.28344126    -58.11805038
 H    123.15785234     86.28121120    -60.17769871
 H    124.75963384     86.15487604    -59.41179916
 H    124.86756637     88.60912397    -59.23269800
 H    123.26578487     88.73545914    -59.99859755
 H    124.17156811     87.73322908    -62.05824588
 H    125.77334961     87.60689392    -61.29234633
 H    125.88128213     90.06114185    -61.11324518
 H    124.27950064     90.18747702    -61.87914473
 H    125.18528387     89.18524696    -63.93879305
 H    126.78706537     89.05891180    -63.17289350
 H    126.89499790     91.51315973    -62.99379235
 H    125.29321640     91.63949490    -63.75969190
 H    126.19899964     90.63726484    -65.81934023
 H    127.80078113     90.51092968    -65.05344068
 H    127.90871366     92.96517761    -64.87433952
 H    126.30693216     93.09151278    -65.64023908
 H    127.21271540     92.08928272    -67.69988740
 H    128.81449690     91.96294756    -66.93398785
 H    128.92381377     94.41654308    -66.75578746
 H    127.32089441     94.54405390    -67.51910729
 H    128.22287327     93.54212519    -69.58057099
 H    129.82579263     93.41461437    -68.81725116
 H    129.93535598     95.86873312    -68.63737181
 H    128.33243662     95.99624394    -69.40069164
 H    129.23441548     94.99431523    -71.46215534
 H    130.83733484     94.86680442    -70.69883551
 H    130.94689819     97.32092317    -70.51895616
 H    129.34397883     97.44843399    -71.28227599
 H    130.24595769     96.44650528    -73.34373969
 H    131.84887705     96.31899446    -72.58041986
 H    131.95844040     98.77311322    -72.40054051
 H    130.35552104     98.90062404    -73.16386034
 H    131.25749990     97.89869533    -75.22532404
 H    132.86041926     97.77118451    -74.46200421
 H    132.96998261    100.22530327    -74.28212486
 H    131.36706325    100.35281409    -75.04544469
 H    132.26904211     99.35088538    -77.10690839
 H    133.87196147     99.22337456    -76.34358856
 H    134.12749383    101.60042981    -76.28248079
 H    132.42612840    101.85943413    -76.73694651
 H    132.87673006    100.91030478    -78.96476409
 H    134.57809550    100.65130046    -78.51029838
 H    134.88115079    103.08278571    -78.25910808
 H    133.17978536    103.34179003    -78.71357379
 H    133.63038703    102.39266068    -80.94139138
 H    135.33175246    102.13365636    -80.48692566
 H    135.63480776    104.56514160    -80.23573536
 H    133.93344232    104.82414592    -80.69020108
 H    134.38404399    103.87501657    -82.91801866
 H    136.08540942    103.61601225    -82.46355295
 H    136.38846472    106.04749750    -82.21236265
 H    134.68709928    106.30650182    -82.66682836
 H    135.13770095    105.35737247    -84.89464595
 H    136.83906639    105.09836815    -84.44018024
 H    137.14212168    107.52985340    -84.18898994
 H    135.44075624    107.78885771    -84.64345565
 H    135.89135791    106.83972836    -86.87127323
 H    137.59272335    106.58072404    -86.41680752
 H    137.93330269    108.98902057    -86.20586738
 H    136.21542477    109.28490297    -86.56588919
 H    136.52947481    108.35793370    -88.82623432
 H    138.24735273    108.06205129    -88.46621251
 H    138.60894364    110.48403717    -88.20107862
 H    136.89106571    110.77991958    -88.56110043
 H    137.20511575    109.85295030    -90.82144556
 H    138.92299368    109.55706789    -90.46142375
 H    139.28458458    111.97905378    -90.19628987
 H    137.56670666    112.27493619    -90.55631167
 H    137.88075670    111.34796691    -92.81665680
 H    139.59863463    111.05208450    -92.45663500
 H    139.96022553    113.47407039    -92.19150111
 H    138.24234761    113.76995279    -92.55152291
 H    138.55639765    112.84298352    -94.81186805
 H    140.27427557    112.54710111    -94.45184624
 H    140.63586648    114.96908699    -94.18671235
 H    138.91798855    115.26496940    -94.54673416
 H    139.23203859    114.33800012    -96.80707929
 H    140.94991652    114.04211772    -96.44705748
 H    141.40066337    116.40001534    -96.30342534
 H    139.66696443    116.79170523    -96.39899561
 H    139.60195643    115.94024631    -98.70937464
 H    141.33565537    115.54855642    -98.61380437
 H    141.74174753    118.02023316    -98.17435128
 H    140.03615878    118.28763870    -98.60762710
 H    140.45606684    117.34325183   -100.84344245
 H    142.16165559    117.07584629   -100.41016662
 H    142.47786832    119.50529858   -100.15554792
 H    140.77227956    119.77270412   -100.58882375
 H    141.19218762    118.82831725   -102.82463909
 H    142.89777638    118.56091171   -102.39136326
 H    143.21398911    120.99036400   -102.13674456
 H    141.50840035    121.25776954   -102.57002039
 H    141.92830841    120.31338267   -104.80583573
 H    143.63389716    120.04597713   -104.37255991
 H    143.95010989    122.47542941   -104.11794121
 H    142.24452114    122.74283495   -104.55121703
 H    142.66442920    121.79844809   -106.78703238
 H    144.37001795    121.53104254   -106.35375655
 H    144.68623068    123.96049483   -106.09913785
 H    142.98064193    124.22790037   -106.53241368
 H    143.40054998    123.28351350   -108.76822902
 H    145.10613874    123.01610796   -108.33495319
 H    145.42235147    125.44556025   -108.08033449
 H    143.71676271    125.71296579   -108.51361032
 H    144.13667077    124.76857892   -110.74942566
 H    145.84225952    124.50117338   -110.31614984
 H    146.15847225    126.93062567   -110.06153114
 H    144.45288350    127.19803121   -110.49480696
 H    144.87279156    126.25364434   -112.73062231
 H    146.57838031    125.98623880   -112.29734648
 H    146.89459304    128.41569108   -112.04272778
 H    145.18900429    128.68309662   -112.47600361
 H    145.60891234    127.73870975   -114.71181895
 H    147.31450110    127.47130421   -114.27854312
 H    147.75191251    129.81606349   -114.18210766
 H    146.01849373    130.21149893   -114.26670570