302
Step 1 E=        39.6214
 C      0.00000000      0.00000000      0.00000000
 C      1.54000000      0.00000000      0.00000000
 C      2.16637443      1.40686000      0.00000000
 C      3.66258126      1.42635798      0.36412216
 C      4.37444288      2.74721905      0.01745361
 C      5.74756620      2.91509470      0.69417372
 C      6.61420783      4.03231159      0.08396170
 C      7.80827375      4.44933657      0.96253826
 C      8.86966735      5.28384156      0.22183248
 C      9.86262187      6.00358967      1.15328510
 C     11.12184635      6.52987085      0.43985548
 C     11.92973321      7.54856924      1.26518717
 C     13.35239120      7.79950336      0.73163652
 C     14.02631261      9.05674727      1.31195340
 C     15.54704658      9.11737171      1.07680900
 C     16.16348261     10.50756727      1.31963181
 C     17.69835589     10.49897091      1.44489208
 C     18.34467642     11.89133844      1.32167505
 C     19.80707386     11.94772305      1.80106479
 C     20.56498756     13.21107141      1.35260327
 C     21.88202353     13.45432906      2.11276245
 C     22.81209933     14.48190799      1.44146478
 C     23.93842489     14.99853024      2.35584554
 C     25.06861801     15.72825267      1.60633323
 C     25.99501164     16.55294604      2.51917259
 C     27.31536789     16.97914964      1.85088383
 C     28.07048235     18.08826088      2.60671081
 C     29.53502382     18.26278069      2.16369712
 C     30.17995830     19.57877757      2.63678453
 C     31.71539320     19.60112660      2.52042224
 C     32.33211895     21.00728535      2.63860394
 C     33.85172575     21.00580319      2.88838985
 C     34.52755776     22.36832012      2.64673158
 C     35.94761331     22.47586089      3.23280087
 C     36.75866971     23.66919963      2.69453500
 C     38.01430947     23.99796456      3.52331870
 C     39.01109206     24.92863720      2.80786575
 C     40.06859774     25.54891971      3.73981603
 C     41.26642507     26.17319671      3.00016211
 C     42.12961209     27.10006633      3.87618771
 C     43.50571763     27.43226051      3.26990347
 C     44.21521237     28.62270814      3.94150726
 C     45.71305728     28.73246331      3.60089833
 C     46.33860095     30.09354870      3.95830802
 C     47.87858458     30.09264660      3.96535159
 C     48.50582173     31.49910458      3.95831454
 C     50.00036084     31.52028944      4.32912992
 C     50.71461523     32.83825962      3.97643282
 C     52.08473541     33.01009158      4.65822785
 C     52.95484660     34.12247638      4.04413780
 C     54.14514286     34.54497762      4.92520961
 C     55.21042553     35.37362468      4.18351096
 C     56.19955798     36.09933160      5.11440648
 C     57.46235432     36.61983871      4.40305723
 C     58.26709074     37.64384965      5.22488500
 C     59.69232674     37.89018739      4.69609386
 C     60.36436615     39.15109120      5.27062377
 C     61.88619591     39.20916765      5.04201642
 C     62.50237489     40.60067715      5.27786546
 C     64.03665416     40.59206388      5.41020194
 C     64.68439129     41.98315048      5.28014543
 C     66.14461744     42.04205247      5.76581008
 C     66.90535303     43.30176768      5.31193901
 C     68.21905177     43.54960010      6.07638308
 C     69.15282018     44.57188191      5.40213056
 C     70.27527475     45.09426972      6.31799448
 C     71.40933169     45.81803453      5.56854179
 C     72.33205387     46.64859202      6.47978162
 C     73.65571321     47.06930608      5.81455563
 C     74.40805127     48.18326913      6.56600340
 C     75.87470937     48.35380741      6.12847544
 C     76.51828845     49.67272470      6.59523355
 C     78.05425256     49.69335443      6.48574076
 C     78.67130067     51.09994895      6.59684204
 C     80.18974899     51.09933545      6.85357989
 C     80.86752005     52.45972094      6.60543139
 C     82.28494891     52.57055375      7.19721811
 C     83.09919374     53.75959765      6.65428167
 C     84.35123617     54.09345437      7.48646520
 C     85.35185255     55.01848233      6.76904612
 C     86.40547174     55.64469183      7.70143459
 C     87.60705197     56.26304363      6.96289143
 C     88.46679958     57.19555264      7.83631057
 C     89.84586619     57.52266355      7.23400356
 C     90.55302013     58.71739467      7.90044999
 C     92.05247336     58.82387145      7.56593134
 C     92.67721828     60.18707299      7.91660976
 C     94.21715279     60.18531842      7.93070294
 C     94.84528457     61.59132433      7.91663586
 C     96.33812643     61.61424413      8.29412472
 C     97.05479934     62.92927966      7.93543056
 C     98.42189567     63.10510532      8.62225875
 C     99.29549111     64.21262881      8.00434069
 C    100.48200973     64.64062594      8.88785188
 C    101.55118235     65.46340596      8.14521942
 C    102.53649900     66.19506985      9.07549842
 C    103.80285408     66.70981560      8.36628645
 C    104.60445939     67.73911613      9.18455862
 C    106.03224879     67.98088959      8.66057098
 C    106.70243491     69.24541358      9.22927975
 H     -0.36333333      0.00000000      1.02766186
 H     -0.36333333     -0.88998127     -0.51383093
 H     -0.36333333      0.88998127     -0.51383093
 H      1.88274777     -0.52778528     -0.88998127
 H      1.88274777     -0.52778528      0.88998127
 H      1.62962592      2.02101998      0.72305501
 H      2.05048553      1.83364121     -0.99625678
 H      4.15717254      0.61860736     -0.17533905
 H      3.75648615      1.25769264      1.43689142
 H      3.73528646      3.57318737      0.32947188
 H      4.51745299      2.78633854     -1.06241572
 H      6.29022101      1.97384542      0.60656354
 H      5.58492586      3.14405090      1.74737226
 H      5.98363611      4.90706985     -0.07502660
 H      6.99911231      3.68290906     -0.87409175
 H      8.28610715      3.54634474      1.34251327
 H      7.42998472      5.03909210      1.79751480
 H      8.35704665      6.03512878     -0.37890668
 H      9.43363806      4.61865673     -0.43205296
 H     10.17502842      5.30336409      1.92800201
 H      9.35043231      6.84897395      1.61272744
 H     10.81419884      7.00881589     -0.48969531
 H     11.76813359      5.68146395      0.21486982
 H     12.00744527      7.17720748      2.28702438
 H     11.39075684      8.49598644      1.26292277
 H     13.29790978      7.90882650     -0.35149793
 H     13.96865155      6.93514349      0.97903338
 H     13.84452212      9.07804827      2.38647585
 H     13.57273755      9.93327282      0.84927359
 H     15.74596536      8.82981289      0.04441313
 H     16.02662478      8.40735002      1.75058489
 H     15.74654059     10.91094553      2.24242395
 H     15.89131889     11.15370606      0.48504715
 H     18.10290589      9.86245378      0.65794529
 H     17.96048921     10.08434135      2.41827199
 H     17.76148007     12.59382929      1.91706452
 H     18.31556825     12.19123888      0.27414823
 H     20.33053216     11.07627652      1.40778074
 H     19.81219144     11.91358169      2.89051795
 H     19.91592862     14.07304752      1.50693953
 H     20.79453568     13.11447190      0.29143590
 H     22.41514170     12.50648610      2.18678091
 H     21.63924254     13.81369382      3.11276963
 H     22.21004628     15.33352976      1.12464863
 H     23.26690569     14.01365826      0.56854246
 H     24.37012457     14.14729605      2.88228237
 H     23.50382338     15.68987485      3.07783180
 H     24.61753472     16.40164202      0.87751868
 H     25.67261256     14.98360640      1.08788120
 H     26.23342677     15.95302465      3.39743937
 H     25.46100537     17.45185529      2.82723015
 H     27.09061914     17.34019209      0.84727217
 H     27.96421896     16.10571990      1.78597790
 H     28.06036193     17.84674864      3.66956988
 H     27.54831792     19.03099937      2.44334486
 H     29.56909848     18.23653149      1.07454612
 H     30.11590230     17.43257680      2.56549518
 H     29.91313289     19.73487527      3.68202982
 H     29.77863904     20.39330709      2.03380483
 H     31.99174971     19.18600797      1.55119388
 H     32.12834646     18.97796934      3.31367166
 H     31.84904825     21.52487213      3.46736604
 H     32.13775576     21.54585503      1.71109887
 H     34.30792562     20.27390321      2.22182845
 H     34.02861219     20.71429128      3.92368304
 H     33.90966611     23.14279613      3.10115079
 H     34.58705663     22.53545584      1.57126631
 H     36.48714927     21.55927739      2.99431476
 H     35.86501091     22.57776747      4.31487845
 H     36.11292140     24.54730095      2.68766563
 H     37.07084604     23.43979020      1.67570368
 H     38.52488742     23.06378108      3.75722335
 H     37.69795270     24.48053520      4.44805865
 H     38.44972840     25.73746954      2.34014673
 H     39.52689503     24.35269132      2.03953402
 H     40.44340923     24.76755386      4.40093913
 H     39.58850256     26.32728850      4.33290173
 H     40.88570191     26.75298784      2.15933388
 H     41.89822967     25.36636957      2.62874198
 H     42.28756775     26.61298656      4.83842641
 H     41.58681240     28.03333257      4.02612978
 H     43.36767101     27.66662682      2.21438674
 H     44.14392399     26.55394450      3.36661763
 H     44.11630310     28.51563454      5.02171659
 H     43.72262055     29.54062798      3.62076364
 H     45.83375157     28.57045707      2.52978356
 H     46.24685277     27.95559336      4.14828801
 H     45.99147711     30.38021454      4.95099515
 H     45.99961821     30.82878545      3.22850145
 H     48.22506933     29.55840730      3.08068404
 H     48.21693577     29.57094015      4.86058388
 H     47.96615443     32.11865472      4.67456648
 H     48.39475020     31.91892830      2.95855899
 H     50.49691278     30.70847087      3.79763506
 H     50.08925847     31.35912674      5.40347800
 H     50.07455025     33.66677868      4.27970333
 H     50.86258247     32.86969093      2.89698028
 H     52.62720313     32.06793105      4.57972754
 H     51.91742568     33.24655299      5.70903394
 H     52.32554864     34.99646273      3.87611419
 H     53.34390891     33.76611138      3.09033777
 H     54.62067686     33.64440386      5.31371227
 H     53.76340686     35.14081915      5.75427564
 H     54.70101963     36.12096357      3.57516057
 H     55.77696713     34.70352204      3.53690980
 H     56.50798842     35.40439533      5.89545338
 H     55.68579685     36.94822978      5.56553991
 H     57.15925365     37.09240697      3.46876112
 H     58.10913848     35.76949027      4.18700681
 H     58.33990319     37.27964647      6.24965540
 H     57.72871592     38.59154298      5.21348730
 H     59.64286285     37.99191328      3.61197894
 H     60.30691592     37.02723004      4.95238427
 H     60.17768070     39.18006395      6.34412697
 H     59.91345179     40.02460281      4.79971645
 H     62.08965242     38.91423031      4.01259065
 H     62.36225142     38.50362686      5.72295940
 H     62.08146986     41.01078702      6.19587899
 H     62.23442699     41.24108287      4.43751765
 H     64.44440248     39.94978472      4.62961320
 H     64.29408060     40.18414476      6.38766479
 H     64.09891461     42.69015760      5.86790217
 H     64.66025543     42.27568477      4.23041159
 H     66.66932878     41.16755192      5.38106757
 H     66.14473560     42.01557988      6.85548855
 H     66.25612842     44.16518917      5.45723434
 H     67.13968804     43.19756436      4.25253882
 H     68.75124031     42.60198968      6.15950850
 H     67.97192588     43.91613923      7.07271529
 H     68.55274749     45.42160437      5.07657795
 H     69.61132118     44.09723115      4.53461486
 H     70.70403825     44.24651058      6.85237852
 H     69.83780595     45.79093520      7.03310165
 H     70.96199966     46.48653966      4.83295023
 H     72.01522873     45.06940257      5.05811160
 H     72.56608249     46.05472989      7.36333036
 H     71.79720109     47.54996070      6.77905911
 H     73.43577598     47.42340466      4.80741025
 H     74.30431423     46.19506105      5.75876715
 H     74.39292496     47.94925253      7.63047859
 H     73.88722147     49.12513970      6.39361967
 H     75.91374434     48.31987011      5.03970341
 H     76.45323263     47.52611306      6.53875938
 H     76.24678607     49.83633445      7.63812296
 H     76.12023212     50.48322334      5.98470664
 H     78.33477850     49.27125988      5.52073226
 H     78.46319157     49.07555616      7.28523695
 H     78.18476791     51.62364116      7.41972256
 H     78.48151060     51.63208841      5.66469006
 H     80.64853758     50.36249320      6.19427987
 H     80.36172262     50.81501676      7.89169739
 H     80.24803709     53.23773917      7.05155750
 H     80.93203593     52.61924521      5.52909979
 H     82.82500250     51.65199789      6.96765931
 H     82.19746579     52.68012516      8.27816252
 H     82.45402631     54.63800694      6.63827869
 H     83.41588054     53.52283741      5.63852872
 H     84.86016258     53.16064206      7.72927195
 H     84.03095537     54.58270944      8.40632915
 H     84.79313194     55.82433008      6.29308322
 H     85.87080503     54.43683881      6.00715430
 H     86.77677539     54.86778094      8.36974819
 H     85.92315255     56.42749838      8.28682516
 H     87.23053332     56.83712298      6.11627073
 H     88.24004848     55.45325134      6.60005281
 H     88.62005560     56.71516769      8.80266604
 H     87.92389721     58.13016930      7.97719610
 H     89.71278906     57.74967291      6.17624308
 H     90.48308106     56.64467659      7.33981518
 H     90.44910972     58.61798752      8.98092250
 H     90.06246643     59.63332177      7.57100406
 H     92.17796073     58.65425676      6.49654657
 H     92.58328180     58.05056242      8.12121104
 H     92.32573918     60.48092459      8.90565661
 H     92.34202836     60.91735133      7.18010365
 H     94.56734623     59.64466049      7.05141143
 H     94.55108722     59.66973019      8.83112315
 H     94.30273294     62.21621831      8.62603366
 H     94.73904206     62.00416328      6.91345266
 H     96.83660010     60.79841267      7.77063352
 H     96.42201428     61.46059795      9.36997586
 H     96.41386736     63.76028832      8.22993151
 H     97.20771700     62.95302301      6.85647160
 H     98.96413411     62.16209781      8.55287355
 H     98.24993216     63.34905763      9.67059831
 H     98.66750771     65.08577891      7.82729335
 H     99.68868746     63.84932903      7.05486194
 H    100.95520689     63.74253159      9.28485435
 H    100.09685757     65.24251373      9.71094902
 H    101.04502355     66.20674115      7.52930055
 H    102.12025848     64.78843541      7.50594865
 H    102.84092772     65.50546967      9.86281967
 H    102.02120645     67.04742425      9.51829133
 H    103.50431794     67.17597117      7.42731087
 H    104.45009313     65.85758829      8.15918690
 H    104.67236331     67.38209487     10.21218933
 H    104.06672801     68.68702092      9.16402876
 H    105.98780216     68.07500859      7.57555204
 H    106.64512703     67.11939834      8.92573711
 H    106.86055242     69.12223910     10.30069325
 H    106.05926608     70.10773887      9.05369803
 H    107.66183876     69.40128297      8.73597558
302
Step 10000 E=        44.9476
 C      0.00000000      0.00000000      0.00000000
 C      1.54000000      0.00000000      0.00000000
 C      2.16637443      0.44034035     -1.33617194
 C      3.66274843      0.10124236     -1.46837404
 C      4.26082727      0.43366500     -2.84801054
 C      3.88186828     -0.56959449     -3.95320757
 C      4.88809266     -0.62853499     -5.11752647
 C      4.80177942     -1.91780857     -5.95533532
 C      5.97308101     -2.10634932     -6.93722380
 C      5.75663529     -3.23636885     -7.96084830
 C      4.65479948     -2.94163312     -8.99558918
 C      4.38805558     -4.10065306     -9.97391452
 C      5.64563456     -4.60386656    -10.70662953
 C      5.34860350     -5.56356668    -11.87382627
 C      5.19587514     -4.86352579    -13.23699053
 C      4.22327120     -5.57088397    -14.19890840
 C      3.79442423     -4.70967076    -15.40140667
 C      2.54847260     -5.23708008    -16.13696358
 C      1.23555628     -4.55067759    -15.71660380
 C     -0.03304035     -5.32583459    -16.11834279
 C     -1.31733596     -4.82375914    -15.43270072
 C     -2.60134943     -5.51943655    -15.92151800
 C     -3.84322370     -5.21762141    -15.06229980
 C     -3.65847365     -5.52498401    -13.56463640
 C     -4.80318237     -5.00843436    -12.67333488
 C     -4.77540172     -5.55997519    -11.23575673
 C     -5.90837932     -5.02779015    -10.33868323
 C     -5.94298611     -5.65729451     -8.93364707
 C     -7.08738805     -5.13888966     -8.04302896
 C     -6.96128915     -5.54339048     -6.56246212
 C     -8.15033415     -5.10188625     -5.68905156
 C     -8.08462563     -5.61180685     -4.23740995
 C     -9.08422516     -4.92681887     -3.28704568
 C     -9.20729716     -5.60729460     -1.91103476
 C     -9.94731015     -4.76165316     -0.85800516
 C     -9.89666898     -5.34850215      0.56489460
 C    -10.93186888     -4.74146687      1.53002119
 C    -10.80437286     -5.24174550      2.98090576
 C    -10.83552399     -6.77515682      3.11975578
 C    -10.49917454     -7.28298014      4.53417599
 C    -10.32345989     -8.81016047      4.62607040
 C    -10.15543834     -9.33595194      6.06374634
 C     -9.96693042    -10.86166335      6.15468282
 C    -10.13617353    -11.43010686      7.57588961
 C     -9.39886958    -12.76174796      7.80980173
 C     -8.00857195    -12.83203371      7.15121809
 C     -7.20157382    -14.08946590      7.52433780
 C     -5.75176600    -14.08020033      7.00513511
 C     -5.02636123    -15.43103823      7.14874878
 C     -3.60084158    -15.44155194      6.56618274
 C     -2.70153987    -14.30665359      7.09045574
 C     -1.23178441    -14.41490125      6.64357618
 C     -0.26782850    -13.51331647      7.43700789
 C      1.22025678    -13.76436567      7.13012597
 C      1.67661227    -15.21298026      7.38479327
 C      3.13108824    -15.49458672      6.96432038
 C      3.66083726    -16.86644331      7.42145873
 C      2.79377847    -18.05557151      6.96782541
 C      3.40599692    -19.43318420      7.28242331
 C      2.36841227    -20.56252606      7.42244144
 C      1.41319856    -20.68801740      6.22101784
 C      0.34500391    -21.78557283      6.38205284
 C     -0.56291010    -21.96149657      5.15065405
 C     -1.76327518    -22.89709045      5.38600008
 C     -3.13002698    -22.19016171      5.32402199
 C     -3.31064383    -21.28277690      4.09291258
 C     -4.32555147    -20.14289590      4.29842112
 C     -4.08329202    -18.91835269      3.39653184
 C     -4.78977203    -17.63705204      3.87690113
 C     -5.27350094    -16.72309182      2.73572495
 C     -6.27795705    -15.64384523      3.18057852
 C     -7.09037133    -15.02996774      2.02527013
 C     -7.86332517    -13.75514905      2.41124898
 C     -9.17738865    -13.55942951      1.63244797
 C     -9.90784748    -12.24314639      1.95714576
 C    -11.05732237    -11.90919467      0.98823724
 C    -11.62169830    -10.48582016      1.15281181
 C    -12.53142581    -10.03495627     -0.00508180
 C    -12.85598266     -8.52956682      0.00300824
 C    -13.56964408     -8.03581746     -1.26919415
 C    -13.53427093     -6.50736297     -1.45406069
 C    -14.30912820     -6.00750739     -2.68748705
 C    -14.14106813     -4.50207721     -2.96504031
 C    -12.84156513     -4.14367178     -3.70964591
 C    -12.53576748     -2.63475559     -3.74513839
 C    -11.25234530     -2.27370641     -4.51589839
 C    -10.79111283     -0.81786447     -4.31743209
 C     -9.75227890     -0.34355249     -5.35060788
 C     -8.65934605      0.57028734     -4.76580489
 C     -7.74546733      1.21165393     -5.82650021
 C     -7.05275637      0.19556049     -6.75348761
 C     -5.65831994      0.63675594     -7.23566356
 C     -5.12682276     -0.16849165     -8.43594980
 C     -3.95802095      0.50814652     -9.17599245
 C     -2.73157209      0.78709071     -8.28739055
 C     -1.71305577      1.75840342     -8.91251142
 C     -1.05668364      1.23288915    -10.20270923
 C     -1.68217571      1.78940329    -11.49524615
 C     -0.90975313      1.41875182    -12.77492612
 C     -1.32455211      2.23253588    -14.01480407
 H     -0.36333333      0.00000000      1.02766186
 H     -0.36333333     -0.88998127     -0.51383093
 H     -0.36333333      0.88998127     -0.51383093
 H      1.88274777     -0.46285085     -0.92541507
 H      1.88274777      0.97505411     -0.34625632
 H      1.62962592      1.31929436     -1.69316057
 H      2.05048553     -0.37227879     -2.05333294
 H      3.81581112     -0.91808686     -1.11391705
 H      4.22737759      0.79222301     -0.84240308
 H      3.90547570      1.41977095     -3.14704284
 H      3.65072570     -0.04913587     -3.61141043
 H      2.81724443     -0.78737022     -3.86806186
 H      4.71697815     -0.64383287     -4.64975632
 H      5.89482492     -0.64484290     -4.70000496
 H      4.76143128      0.26713179     -5.72566947
 H      3.75023176     -2.13474402     -6.14318240
 H      5.24327966     -2.73107230     -5.37933214
 H      6.09027198     -3.17270454     -7.13023369
 H      5.83607217     -1.41722766     -7.77055442
 H      4.69936357     -3.50146539     -7.96028692
 H      5.87977198     -4.19076987     -7.44893419
 H      4.77858226     -1.91680482     -9.34559598
 H      4.29150208     -3.89092411     -9.38924082
 H      4.35480970     -5.02931426     -9.40419257
 H      5.34757803     -4.50808010    -10.29237940
 H      6.45407745     -4.68961191     -9.98056629
 H      5.91599040     -3.87067863    -11.46652634
 H      4.71112605     -5.04517188    -12.59005901
 H      5.06195855     -6.52977991    -11.45865562
 H      5.99475787     -4.12866617    -13.33632693
 H      4.21944303     -5.12127617    -13.64716743
 H      3.33250327     -5.85452793    -13.63839204
 H      4.71159682     -6.46662134    -14.58269565
 H      4.67923995     -4.21422090    -15.80106974
 H      3.08546255     -3.95979538    -15.05046471
 H      1.80710470     -5.52565659    -15.39184799
 H      2.83861043     -6.11204013    -16.71865504
 H      1.41240792     -3.47647534    -15.66263130
 H      0.95454988     -4.92259627    -14.73130593
 H      0.12059685     -6.37933802    -15.88462048
 H     -0.18011500     -5.20957841    -17.19209954
 H     -1.32064294     -3.73429889    -15.46683927
 H     -1.30330136     -5.15468960    -14.39424607
 H     -2.40893630     -6.59059610    -15.98229965
 H     -2.84223299     -5.13670633    -16.91328041
 H     -3.86009231     -4.14908745    -14.84770572
 H     -3.50953490     -4.94945442    -14.05988359
 H     -2.68548515     -5.14425519    -13.25409020
 H     -3.68503388     -6.60641799    -13.43086388
 H     -5.74970687     -5.24833763    -13.15772914
 H     -4.59355907     -5.29854852    -11.64377582
 H     -3.74916207     -5.51504588    -10.87118364
 H     -5.10710176     -6.59798611    -11.26042252
 H     -6.83803968     -5.05718569    -10.90698554
 H     -5.67828371     -3.99638140    -10.07156528
 H     -4.92402814     -5.69118266     -8.54806148
 H     -6.33193835     -6.67169220     -9.02204094
 H     -7.99895724     -5.10773369     -8.63982952
 H     -6.83494056     -4.13137961     -7.71243287
 H     -5.92779326     -5.38975939     -6.25200483
 H     -7.21430719     -6.59983959     -6.47303534
 H     -9.07180821     -5.32062289     -6.22862531
 H     -8.07304936     -4.02744187     -5.52262935
 H     -7.06786057     -5.47148575     -3.87053285
 H     -9.07893295     -5.52687549     -3.79895856
 H    -10.04874693     -4.86462974     -3.79096062
 H     -8.72043591     -3.92177276     -3.07341116
 H     -8.20475087     -5.84472203     -1.55518487
 H     -9.77686164     -6.52848491     -2.03393606
 H    -10.83308905     -4.33107273     -1.32501291
 H     -9.28278689     -3.96131442     -0.53247984
 H     -8.87743661     -5.68037264      0.76270093
 H    -10.57177301     -6.20321302      0.60736661
 H    -11.88770762     -4.67562375      1.01027414
 H    -10.54121757     -4.81892683      2.54465980
 H     -9.74902978     -5.23718154      3.25354135
 H    -10.59688477     -6.31156094      2.95759023
 H    -10.19688949     -7.20235868      2.34661637
 H    -11.86139464     -7.11203017      2.97073978
 H    -11.03625229     -6.66765420      5.25599417
 H     -9.42605082     -7.17417241      4.69123122
 H     -9.71838972     -9.13705233      3.78041574
 H    -11.30878172     -9.27263957      4.56815684
 H    -10.89114900     -8.84119372      6.69781583
 H     -9.15198555     -9.08303366      6.40611288
 H     -9.25695348    -11.16574294      5.38554801
 H    -10.92976735    -11.33765109      5.96899296
 H    -11.01562955    -10.97013237      8.02653424
 H     -9.25165095    -11.16921232      8.15696952
 H     -8.89592492    -13.04221817      6.88433800
 H     -9.95069301    -13.55284048      7.30209756
 H     -7.49136593    -11.89155799      7.34122692
 H     -8.14410414    -12.96166424      6.07747373
 H     -7.86583856    -14.95191112      7.46919618
 H     -6.84007489    -13.97402880      8.54614639
 H     -5.32668883    -13.09425696      7.19308478
 H     -5.63243210    -14.90869560      6.30695534
 H     -5.70605127    -16.22079865      6.82874889
 H     -4.77239722    -15.57373478      8.19910109
 H     -3.29938936    -14.41089366      6.37917985
 H     -3.67505411    -15.46487447      5.47896217
 H     -2.84010569    -14.22994968      8.16888795
 H     -3.01337917    -13.37571692      6.61694421
 H     -1.21360542    -14.66794358      5.58351057
 H     -0.75744597    -15.21229675      7.21564563
 H     -0.51445374    -13.59573041      8.49553703
 H     -0.41312903    -12.48399494      7.10915894
 H      1.33687967    -13.85551951      6.05022316
 H      1.34267343    -14.81382746      6.86227503
 H      0.92325543    -15.88650401      6.97623578
 H      1.75327834    -15.36390037      8.46156875
 H      3.75315944    -14.66775271      7.30706363
 H      3.23512920    -16.56479720      6.78564467
 H      3.58159107    -17.56059370      6.58481347
 H      3.18835058    -17.63675209      6.81196654
 H      2.52567241    -17.90503152      5.92209272
 H      1.88939498    -18.07203919      7.57603532
 H      3.79600712    -19.41063024      8.30001034
 H      4.22333525    -19.61261057      6.58395052
 H      1.39675903    -20.17520436      7.11589312
 H      1.85736714    -20.44195539      8.37763545
 H      2.00075352    -20.60931723      5.30631272
 H      0.69754359    -19.86703596      6.26492060
 H     -0.06559216    -21.71905219      7.38956754
 H      0.82634308    -22.75445754      6.24910537
 H      0.06322252    -21.94865228      4.25852571
 H     -1.26065098    -21.12476514      5.11691700
 H     -2.20794745    -22.64835681      6.34958617
 H     -2.55936659    -22.61299008      4.69779557
 H     -2.96362332    -21.14447164      5.06529025
 H     -3.25636203    -21.60774485      6.23667201
 H     -2.94212873    -21.81638558      3.21680847
 H     -2.71960975    -20.37936242      4.24331537
 H     -4.14301661    -19.69328257      5.27444822
 H     -5.32859231    -20.56895839      4.27651596
 H     -3.87067299    -19.27233335      2.38777476
 H     -3.21975263    -18.37529639      3.78057555
 H     -4.64366308    -17.54812774      4.95339760
 H     -5.63606114    -17.44450889      3.21749088
 H     -6.34462182    -16.56137060      2.85674688
 H     -4.40566254    -16.22277576      2.30602697
 H     -5.91524194    -15.19917458      4.10729626
 H     -7.23987123    -16.12403507      3.36013027
 H     -7.42384376    -15.83766679      1.37371937
 H     -6.43837727    -14.35832244      1.46679334
 H     -7.20274485    -13.11891631      3.00026641
 H     -8.72262892    -14.04518591      3.01587754
 H     -9.70094158    -14.51483752      1.59798242
 H     -8.93120757    -13.24324924      0.61877893
 H     -9.17207492    -11.43924481      1.97907705
 H    -10.36902010    -12.34050873      2.93996843
 H    -11.63664663    -12.81666154      0.81798072
 H    -10.62461403    -11.57228357      0.04624234
 H    -10.78473848     -9.79451317      1.25126443
 H    -12.22401172    -10.45880312      2.06088044
 H    -13.20644230    -10.85502343     -0.24991358
 H    -11.90331379     -9.81158127     -0.86744999
 H    -11.93611982     -7.98171852      0.20749438
 H    -13.57693444     -8.33864554      0.79791553
 H    -14.35092807     -8.75198051     -1.52376401
 H    -12.83917913     -7.99254348     -2.07706067
 H    -12.52489000     -6.15893041     -1.23532597
 H    -14.23395267     -6.06041313     -0.74781617
 H    -15.26432642     -6.53104665     -2.72752455
 H    -13.72681196     -6.24541467     -3.57766003
 H    -13.16445009     -4.19195903     -2.59336315
 H    -14.72620757     -3.95047282     -2.22921123
 H    -12.70358790     -4.85782267     -4.52146534
 H    -12.01102726     -4.22567385     -3.00851647
 H    -12.71521779     -2.22519754     -2.75107612
 H    -12.31468319     -2.35397382     -4.77488755
 H    -11.23681052     -2.84647098     -5.44315209
 H    -10.39485489     -2.55134394     -3.90293216
 H    -10.86657065     -0.57591802     -3.25730566
 H    -11.45506243     -0.16734573     -4.88672665
 H    -10.07483073     -0.67456560     -6.33777080
 H     -8.79382076     -0.80278479     -5.10860850
 H     -8.32109034      0.14009015     -3.82314193
 H     -9.09585201      1.55188384     -4.58133030
 H     -8.37017006      1.57611844     -6.64198296
 H     -7.55935954      0.47575659     -6.60875273
 H     -7.78924894     -0.54792179     -7.05830359
 H     -6.25516955     -0.29176390     -6.19271118
 H     -5.01052525     -0.23955873     -7.25878600
 H     -5.78625890      1.41323462     -7.98986013