62
Step 1 E=        -0.8365
 C      0.00000000      0.00000000      0.00000000
 C      1.54000000      0.00000000      0.00000000
 C      2.16637443      1.40686000      0.00000000
 C      3.70637443      1.40686000      0.00000000
 C      4.33274886      2.81372001      0.00000000
 C      5.87274886      2.81372001      0.00000000
 C      6.49912329      4.22058001      0.00000000
 C      8.03912329      4.22058001      0.00000000
 C      8.66549772      5.62744002      0.00000000
 C     10.20549772      5.62744002      0.00000000
 C     10.83187215      7.03430002      0.00000000
 C     12.37187215      7.03430002      0.00000000
 C     12.99824658      8.44116003      0.00000000
 C     14.53824658      8.44116003      0.00000000
 C     15.16462101      9.84802003      0.00000000
 C     16.70462101      9.84802003      0.00000000
 C     17.33099544     11.25488004      0.00000000
 C     18.87099544     11.25488004      0.00000000
 C     19.49736987     12.66174004      0.00000000
 C     21.03736987     12.66174004      0.00000000
 H     -0.36333333      0.00000000      1.02766186
 H     -0.36333333     -0.88998127     -0.51383093
 H     -0.36333333      0.88998127     -0.51383093
 H      1.88274777     -0.52778528     -0.88998127
 H      1.88274777     -0.52778528      0.88998127
 H      1.82362666      1.93464528      0.88998127
 H      1.82362666      1.93464528     -0.88998127
 H      4.04912220      0.87907473     -0.88998127
 H      4.04912220      0.87907473      0.88998127
 H      3.99000109      3.34150529      0.88998127
 H      3.99000109      3.34150529     -0.88998127
 H      6.21549663      2.28593473     -0.88998127
 H      6.21549663      2.28593473      0.88998127
 H      6.15637552      4.74836529      0.88998127
 H      6.15637552      4.74836529     -0.88998127
 H      8.38187106      3.69279473     -0.88998127
 H      8.38187106      3.69279473      0.88998127
 H      8.32274995      6.15522530      0.88998127
 H      8.32274995      6.15522530     -0.88998127
 H     10.54824549      5.09965474     -0.88998127
 H     10.54824549      5.09965474      0.88998127
 H     10.48912438      7.56208530      0.88998127
 H     10.48912438      7.56208530     -0.88998127
 H     12.71461992      6.50651474     -0.88998127
 H     12.71461992      6.50651474      0.88998127
 H     12.65549881      8.96894531      0.88998127
 H     12.65549881      8.96894531     -0.88998127
 H     14.88099435      7.91337475     -0.88998127
 H     14.88099435      7.91337475      0.88998127
 H     14.82187324     10.37580531      0.88998127
 H     14.82187324     10.37580531     -0.88998127
 H     17.04736878      9.32023475     -0.88998127
 H     17.04736878      9.32023475      0.88998127
 H     16.98824767     11.78266532      0.88998127
 H     16.98824767     11.78266532     -0.88998127
 H     19.21374321     10.72709476     -0.88998127
 H     19.21374321     10.72709476      0.88998127
 H     19.15462210     13.18952532      0.88998127
 H     19.15462210     13.18952532     -0.88998127
 H     21.40070321     12.66174004     -1.02766186
 H     21.40070321     11.77175877      0.51383093
 H     21.40070321     13.55172132      0.51383093
62
Step 10000 E=         5.4639
 C      0.00000000      0.00000000      0.00000000
 C      1.54000000      0.00000000      0.00000000
 C      2.16637443     -1.33980573     -0.42915693
 C      3.70385879     -1.36771051     -0.34571135
 C      4.32382010     -2.74016115     -0.66762317
 C      5.83566401     -2.82582960     -0.38728607
 C      6.37855225     -4.26509904     -0.31396592
 C      7.91383383     -4.35195608     -0.23050135
 C      8.50405662     -5.62830550     -0.85833031
 C     10.03820281     -5.72190251     -0.76223102
 C     10.76670579     -4.39971821     -1.06671761
 C     10.76672751     -4.01347945     -2.55749580
 C     11.38016404     -2.63076974     -2.84630282
 C     10.57554336     -1.45434474     -2.26302779
 C      9.07486130     -1.49028374     -2.60691985
 C      8.31642956     -0.20208491     -2.23688598
 C      6.84234999     -0.19313001     -2.68254195
 C      6.17361944      1.19205306     -2.60726058
 C      4.80496709      1.26584266     -3.30936159
 C      3.94485669      2.46899699     -2.88014162
 H     -0.36333333      0.00000000      1.02766186
 H     -0.36333333     -0.88998127     -0.51383093
 H     -0.36333333      0.88998127     -0.51383093
 H      1.88274777     -1.03362018     -0.04746874
 H      1.88274777     -0.91859804      0.47623692
 H      3.15572278     -1.13949206     -0.84045279
 H      1.82362666     -2.11392069      0.25740698
 H      4.01253867     -2.36805973     -0.04220159
 H      4.05924760     -2.25728289     -0.86576882
 H      5.24388984     -2.57747500     -1.22896521
 H      5.20582565     -2.87327056     -0.04116639
 H      6.06960720     -3.84430498     -0.07732076
 H      6.25810029     -3.60566592     -1.02092865
 H      7.44873860     -4.23861615     -0.51914835
 H      7.32651067     -4.24687478      0.22375399
 H      8.20208746     -5.40083418     -0.30024788
 H      8.33286161     -3.87222394     -1.11501975
 H      9.58805233     -5.52112174     -0.89788969
 H      8.08335587     -6.49072963     -0.34128534
 H     10.31779347     -5.69714655      0.29100979
 H     10.40983179     -4.80344917     -0.30787944
 H     11.48978475     -4.58199377     -1.86172229
 H     10.23040681     -3.88922996     -1.86664582
 H     10.59291762     -2.94011175     -2.63346896
 H     10.69237837     -2.92846803     -2.63045079
 H     12.41121179     -2.63259725     -2.49269683
 H     11.32270222     -2.03347505     -1.93633733
 H     10.51441803     -1.58325359     -1.18240473
 H      9.63309905     -1.84202725     -1.87624493
 H      8.54634093     -0.84790856     -1.90256174
 H      8.97130858     -1.47187972     -3.69183373
 H      7.60309378      0.01598383     -3.03168035
 H      8.41837242     -0.04057947     -1.16374869
 H      6.33668654     -1.03594723     -2.21130569
 H      6.56313807      0.83274790     -2.92278184
 H      6.72960473      1.87635353     -3.24812970
 H      5.11988563      1.05131158     -2.36655974
 H      4.43106733      2.28622941     -3.22504159
 H      4.39506710      2.26430112     -3.15716857
 H      4.15763486      3.31794254     -3.52984686
 H      4.17858076      2.73321055     -1.84880063
 H      2.88957500      2.20742112     -2.95797884
62
Step 20000 E=         9.7804
 C      0.00000000      0.00000000      0.00000000
 C      1.54000000      0.00000000      0.00000000
 C      2.16637443     -1.35063593      0.39374820
 C      3.69237633     -1.41457435      0.19669469
 C      4.34892084     -2.67298123      0.79415718
 C      5.88808326     -2.62663730      0.81492420
 C      6.55352687     -4.00134003      1.01235062
 C      8.04587045     -3.92709890      1.38517619
 C      8.31417024     -3.33226537      2.78009134
 C      9.77237415     -3.47812665      3.25334163
 C     10.12432795     -2.60907809      4.47501389
 C     11.62312727     -2.27670317      4.59637096
 C     11.90955223     -0.84669628      5.09098297
 C     11.30190637     -0.52723628      6.46950095
 C     11.20630732      0.97848028      6.77817305
 C     10.34435226      1.31185776      8.01003868
 C      8.82932973      1.17513967      7.77000763
 C      7.96656008      1.52819861      8.99580448
 C      7.95765346      0.44345560     10.08889792
 C      7.14485741      0.82244033     11.34082969
 H     -0.36333333      0.00000000      1.02766186
 H     -0.36333333     -0.88998127     -0.51383093
 H     -0.36333333      0.88998127     -0.51383093
 H      1.88274777     -0.88332430      0.53885263
 H      1.88274777     -0.49502499      0.90861115
 H      3.05064459     -1.51115150     -0.22301840
 H      3.00808345     -1.54487893     -0.27100407
 H      4.12443342     -1.95459984      1.03919047
 H      4.01788376     -2.44003228      0.37156877
 H      5.15958738     -2.98262953      0.13458331
 H      5.32294903     -2.39356939      1.19577652
 H      6.25364580     -3.56502407      1.23193055
 H      6.26428474     -3.47593209      0.24459903
 H      7.63458597     -3.86201589      1.01223400
 H      7.37554298     -3.88593640      1.71880055
 H      8.17129822     -3.15604202      2.14533352
 H      8.17579697     -3.13560948      2.12325721
 H      9.31225167     -3.63583662      3.09596782
 H      9.20271234     -2.70382780      2.71960033
 H     10.41798382     -2.97260165      2.53519636
 H      9.78200686     -3.46443644      4.34321309
 H     10.93198657     -3.09648417      5.02111175
 H     10.92269651     -1.92400632      4.18973450
 H     11.76577930     -1.23159186      4.32161154
 H     11.75297427     -1.20919550      4.41841836
 H     12.32389592     -0.90862688      6.09725526
 H     12.17403556     -0.89590704      6.14726271
 H     11.71135429     -1.22951198      7.19562851
 H     10.61671335      0.31279895      6.35569699
 H     10.25064615      1.16817265      7.26687391
 H     12.21053444      1.40059328      6.74011382
 H      9.42646595      1.78929445      7.66705335
 H      9.65109841      0.48737775      8.17656736
 H      8.62064253      0.14715363      7.47370652
 H      8.30786988      1.75232368      8.53357704
 H      8.17722310      2.55987165      9.27753455
 H      8.52423756      1.26523914      9.89466384
 H      7.11040923      0.62906866     10.74906835
 H      7.15897489      0.67390288     10.79395578
 H      6.11244734      0.49572116     11.21639485
 H      7.16991731      1.90364438     11.47673334
 H      7.57691686      0.33619788     12.21546842
62
Step 30000 E=         4.3025
 C      0.00000000      0.00000000      0.00000000
 C      1.54000000      0.00000000      0.00000000
 C      2.16637443      0.67650754     -1.23352853
 C      3.69163041      0.49335574     -1.34146186
 C      4.30705504      1.10228885     -2.61506030
 C      5.70560921      0.55620003     -2.95774564
 C      6.29667954      1.12219280     -4.26230996
 C      7.75766872      0.70855503     -4.51924267
 C      8.65695255      0.77748021     -3.27098872
 C     10.11513758      0.35246744     -3.52527314
 C     10.95648350      0.20292391     -2.24411203
 C     10.51420599     -0.95991043     -1.33647393
 C      9.00540763     -0.97514050     -1.02842274
 C      8.60061629     -1.97477151      0.07088697
 C      7.09781066     -1.96152288      0.40704124
 C      6.18380763     -2.25101922     -0.79811033
 C      4.68949478     -2.35432382     -0.44039918
 C      3.79467371     -2.80196129     -1.61108956
 C      2.45837718     -3.43000517     -1.17351388
 C      1.49597692     -3.72944010     -2.33786969
 H     -0.36333333      0.00000000      1.02766186
 H     -0.36333333     -0.88998127     -0.51383093
 H     -0.36333333      0.88998127     -0.51383093
 H      1.88274777      0.24348509     -1.00565351
 H      1.88274777     -0.29254152     -0.99249354
 H      3.18913845      0.96085210     -0.98613830
 H      3.16342353      1.02490801     -0.96406573
 H      3.95510120      0.42765674     -2.39709759
 H      4.06875445      1.19210692     -2.08820428
 H      5.33945603      1.37729355     -2.39914225
 H      5.01070685      0.38267545     -3.03354648
 H      5.91497063      0.78196313     -4.00335495
 H      6.31583463      1.38198616     -3.32353548
 H      7.37935617      1.00048081     -4.22918137
 H      7.06590627      0.43578520     -4.61619530
 H      8.38285385      1.16340841     -3.75089903
 H      8.38655947      1.18766225     -3.76887430
 H      9.60717220      0.29805979     -3.50623049
 H      9.57140559      1.30806593     -3.53623282
 H     10.53553907      1.00879628     -4.28724101
 H     10.40676809     -0.35390654     -2.74804251
 H     10.27875236      0.16778337     -1.39114917
 H     11.05976980     -0.85960579     -2.02396984
 H      9.71584306     -0.60252818     -0.68609362
 H      9.65125921     -0.63285842     -0.75642235
 H      8.87392314     -0.85529878      0.04696082
 H      8.87681166     -1.01364142      0.05327997
 H      7.96331344     -1.45667091      0.78748786
 H      7.66778006     -2.45319025     -0.22749544
 H      6.54963647     -1.65936798     -0.48531937
 H      6.60348297     -2.71765150     -0.20288469
 H      5.36618347     -2.88906804     -0.46272332
 H      5.38009284     -1.51473499     -0.80340875
 H      4.11167877     -2.30056734     -1.36307947
 H      4.20159557     -2.98363653     -1.18472429
 H      4.13502869     -3.78123303     -1.94766843
 H      2.77201999     -2.48951971     -1.39976129
 H      2.00945208     -3.91800738     -2.03862664
 H      1.97198193     -3.84920464     -2.05430413
 H      1.67792623     -4.73785475     -2.70948018
 H      1.66212772     -3.01094557     -3.14052748
 H      0.46669741     -3.65145770     -1.98772339
62
Step 40000 E=         9.7758
 C      0.00000000      0.00000000      0.00000000
 C      1.54000000      0.00000000      0.00000000
 C      2.16637443     -1.39919896     -0.14661974
 C      2.00317373     -2.01473363     -1.54879041
 C      2.10683426     -3.55102764     -1.57438777
 C      1.93952348     -4.16684981     -2.97594767
 C      3.26009509     -4.32531917     -3.75220670
 C      3.07349661     -4.64737015     -5.24655076
 C      2.51985549     -3.47377100     -6.07585562
 C      2.20161515     -3.83555013     -7.53853773
 C      1.51933464     -5.20537914     -7.71076373
 C      0.22830225     -5.37003736     -6.88752437
 C     -0.46986520     -6.72877487     -7.08244638
 C     -1.74010380     -6.90824206     -6.23045728
 C     -1.47294532     -6.98268540     -4.71563566
 C     -1.33191743     -5.60790357     -4.03616082
 C     -2.13623306     -4.48619378     -4.71912751
 C     -1.73993713     -3.06785172     -4.26873286
 C     -0.50951748     -2.49937855     -4.99983185
 C     -0.19276635     -1.03421347     -4.64690121
 H     -0.36333333      0.00000000      1.02766186
 H     -0.36333333     -0.88998127     -0.51383093
 H     -0.36333333      0.88998127     -0.51383093
 H      1.88274777     -1.02154512      0.16452820
 H      1.88274777     -0.80203869      0.65372617
 H      1.59766362     -1.95273521     -0.89379149
 H      1.55557301     -1.97720261     -0.84011336
 H      2.59552876     -2.92866115     -1.59297208
 H      1.79232513     -3.07796147     -1.43394514
 H      1.28506478     -3.94003318     -2.17561120
 H      2.44288643     -3.85541181     -2.56560884
 H      2.85192671     -3.98170526     -3.54281789
 H      2.74838648     -4.87977975     -3.13585877
 H      3.04041069     -4.79832404     -4.70934052
 H      3.08154133     -4.05106182     -4.79191890
 H      2.32880122     -3.96369290     -5.65412187
 H      2.30710106     -3.98380681     -5.64707736
 H      2.49298532     -3.77639817     -7.12265779
 H      1.62788673     -3.81573384     -6.60078718
 H      1.88832411     -4.87898206     -7.57315756
 H      1.23172979     -4.33223277     -7.56553300
 H      1.34047863     -5.62603283     -6.72123808
 H      0.43988142     -5.05620514     -7.68570675
 H     -0.48190877     -5.95062909     -7.47626331
 H     -0.44382270     -6.03252923     -7.43291649
 H     -1.52156336     -6.54529716     -7.30237116
 H     -1.54423012     -6.55610043     -7.14587779
 H     -1.55751198     -7.70178794     -5.50585729
 H     -1.66160680     -6.26036030     -5.35742380
 H     -0.90017496     -6.10204714     -4.42492899
 H     -1.97968736     -6.14490013     -4.23664888
 H     -1.35435676     -4.83965735     -4.80907363
 H     -2.33082480     -5.21176733     -3.85351322
 H     -2.07164851     -3.59192321     -4.09928157
 H     -1.58153555     -3.55381266     -4.61388432
 H     -0.66313318     -2.95623580     -4.39575702
 H     -1.51403929     -2.47695182     -5.15637438
 H     -0.15849023     -1.62527239     -4.45136280
 H     -0.20636137     -1.58083036     -4.49737230
 H      0.48522099     -1.00435735     -3.79394061
 H     -1.11652720     -0.51325211     -4.39517688
 H      0.27720115     -0.54799855     -5.50178459
62
Step 50000 E=         8.9854
 C      0.00000000      0.00000000      0.00000000
 C      1.54000000      0.00000000      0.00000000
 C      2.16637443     -1.40599374     -0.04936273
 C      3.69824622     -1.41515328      0.10838683
 C      4.29567407     -2.81544866      0.34044893
 C      4.17822331     -3.75561943     -0.87358741
 C      4.31324082     -5.24941513     -0.52438161
 C      4.16690490     -6.19117359     -1.73404140
 C      4.05020201     -7.68004476     -1.35821818
 C      4.94309116     -8.09940979     -0.17564390
 C      4.65562772     -9.51637735      0.35460860
 C      5.84889134    -10.16884795      1.07710707
 C      5.72595797    -11.69564172      1.23644373
 C      7.03627236    -12.38950063      1.65266005
 C      6.98606437    -13.92626434      1.56642523
 C      8.37022537    -14.59339224      1.46328109
 C      8.33040564    -16.04089346      0.93911070
 C      9.71689120    -16.62899799      0.61756624
 C     10.73001959    -16.51157789      1.77142212
 C     12.08037292    -17.19699212      1.49150565
 H     -0.36333333      0.00000000      1.02766186
 H     -0.36333333     -0.88998127     -0.51383093
 H     -0.36333333      0.88998127     -0.51383093
 H      1.88274777     -1.00769741      0.23488275
 H      1.88274777     -0.75483745      0.70770360
 H      3.17531517     -1.31777637     -0.45229731
 H      3.14723574     -1.32796778     -0.51832227
 H      3.96965270     -2.23687729      0.77111466
 H      4.05123369     -2.43671736     -0.03270416
 H      3.58289129     -3.55646381     -0.02140359
 H      4.59573663     -3.22426957     -0.62439714
 H      4.55945042     -4.73555284     -0.58636555
 H      3.57527316     -4.61613023     -0.58363522
 H      3.94354776     -5.83323815     -1.36733933
 H      4.69333252     -5.77341642     -1.40133825
 H      4.50112688     -7.18521529     -1.43692733
 H      4.52925830     -7.17798998     -1.44595559
 H      4.83596594     -7.91491741     -0.64022802
 H      3.90545804     -7.75110489     -0.28021093
 H      4.55189306     -9.02972295      0.23615881
 H      5.20600709     -9.14985272     -0.30032296
 H      5.44187690    -10.18181100     -0.00191670
 H      5.17835580     -9.64000386      1.30306621
 H      5.47311261    -10.99174567      1.68516107
 H      5.48854102    -11.05118439      1.60600218
 H      6.12087426    -11.97109908      2.21433144
 H      6.25963779    -11.99001677      2.14011911
 H      6.79124327    -13.20417177      2.33410827
 H      7.23337329    -13.19935446      0.95024422
 H      7.85588781    -14.26662483      1.00458723
 H      7.84786596    -14.32780308      2.09949622
 H      8.26010984    -15.65047304      1.70526195
 H      8.47642002    -15.00935643      0.46138465
 H      9.25730259    -16.23569280      0.39965240
 H      9.32062244    -16.47858468      1.06559027
 H     10.46377856    -16.07837243      1.18946724
 H     10.05096115    -17.20920790      1.47771374
 H     11.72716032    -16.69721562      1.37223672
 H     11.71647612    -16.77449473      1.38948201
 H     12.75850396    -16.48513067      1.02087674
 H     11.92573469    -18.04612685      0.82580510
 H     12.51264966    -17.54484967      2.42971242
62
Step 60000 E=         5.1108
 C      0.00000000      0.00000000      0.00000000
 C      1.54000000      0.00000000      0.00000000
 C      2.16637443      0.10487168      1.40294583
 C      3.69622141     -0.07078766      1.42060958
 C      4.30312501     -0.13438531      2.83454853
 C      5.84180564     -0.07551647      2.85896948
 C      6.43497540      0.23069754      4.24676723
 C      6.19608265      1.67483668      4.72529874
 C      6.67107575      1.94422557      6.16523318
 C      6.42383370      3.38588751      6.64698231
 C      7.33043834      4.43459956      5.97625803
 C      7.23625012      5.83753892      6.60434221
 C      7.92157456      6.94128788      5.77749964
 C      7.70421029      8.36286818      6.32837368
 C      8.65665615      9.41721833      5.73441017
 C      8.19315832     10.87039131      5.94667898
 C      9.10177339     11.92111335      5.28184678
 C      8.45885035     13.31470273      5.15473033
 C      7.30948746     13.38335039      4.13206105
 C      6.66092911     14.77487836      4.01113967
 H     -0.36333333      0.00000000      1.02766186
 H     -0.36333333     -0.88998127     -0.51383093
 H     -0.36333333      0.88998127     -0.51383093
 H      1.88274777      0.34380018      0.97592285
 H      1.88274777      0.78609375      0.67281541
 H      3.06323602     -0.51420146      1.42503053
 H      3.02179789     -0.56918544      1.44764155
 H      4.08726020      0.41961821      2.31206387
 H      3.99187912     -0.40056311      2.41656875
 H      5.12345024     -0.85205078      2.82346700
 H      5.27257090      0.36346797      2.81413298
 H      6.15150447      0.41264656      3.78302764
 H      6.18973751     -0.57778459      3.76161567
 H      6.44826962      1.31209205      4.38281565
 H      5.83750640      1.01643006      4.70910391
 H      6.16270367      1.67380014      5.81478704
 H      6.13265687      1.66927687      5.81343763
 H      6.61564452      3.01713014      6.34936131
 H      5.86472738      2.44091009      6.70486898
 H      7.21864349      4.01972469      6.25375486
 H      6.50287307      4.05252961      5.78823842
 H      6.72127012      5.30205011      5.72220365
 H      7.70838136      5.10491329      6.74822861
 H      8.16269243      6.37108251      6.39189013
 H      8.11848886      6.40533050      6.30876224
 H      8.51730480      7.55546993      6.45276691
 H      8.38782431      7.64589277      6.46615275
 H      8.67552735      8.77921070      6.59539818
 H      7.76798793      9.06579157      5.49775275
 H      8.06986691     10.29448890      5.46205978
 H      8.65501724     10.28837840      6.38952653
 H      9.07672896     11.50242175      6.03578807
 H      8.14973668     11.36175097      4.97468091
 H      8.47299661     12.72495850      4.89899859
 H      8.72498064     12.91133731      5.53793998
 H      8.08105946     13.42646561      4.13842176
 H      7.37614614     13.19156680      5.12847877
 H      7.15566416     14.42729163      3.85888511
 H      7.10280863     14.43207457      3.91860972
 H      7.17898000     15.35186231      3.24510260
 H      6.73259428     15.29345915      4.96719305
 H      5.61216850     14.66422627      3.73553615
62
Step 70000 E=         8.8430
 C      0.00000000      0.00000000      0.00000000
 C      1.54000000      0.00000000      0.00000000
 C      2.16637443      0.66605796      1.23920211
 C      3.70603943      0.63783676      1.25454004
 C      4.34073553      1.62586908      2.25080958
 C      3.71343432      3.03206259      2.22410758
 C      4.05459899      3.89358977      3.45413912
 C      3.93065463      5.40924101      3.21115944
 C      4.42842166      6.27439153      4.38390943
 C      3.93050585      5.80548076      5.76369294
 C      4.50442850      6.61142693      6.94380462
 C      3.97594337      6.16840881      8.32077172
 C      4.26418775      4.69356049      8.65742826
 C      3.70304831      3.69489993      7.62815686
 C      4.16143218      2.24169642      7.85105545
 C      3.95554707      1.32572530      6.63031460
 C      4.39684389     -0.13180782      6.85934370
 C      4.30049834     -1.01990754      5.60491298
 C      2.86195019     -1.42474477      5.23304464
 C      2.77108261     -2.71051940      4.39035449
 H     -0.36333333      0.00000000      1.02766186
 H     -0.36333333     -0.88998127     -0.51383093
 H     -0.36333333      0.88998127     -0.51383093
 H      1.88274777      0.71079220      0.75192980
 H      1.88274777      0.99170139      0.29521572
 H      3.11733740      0.17594103      1.44790007
 H      3.08142443      0.12988739      1.49080620
 H      4.06460735      1.63520442      1.50907255
 H      4.04871459      1.12573329      2.16702604
 H      4.52552078      2.56580281      1.73073363
 H      3.59654234      2.38001812      2.50680903
 H      3.76840503      3.45102621      3.22887009
 H      4.45681348      3.74578771      2.57919051
 H      4.19253277      4.92315533      3.12388313
 H      3.49350530      4.82560047      3.38609563
 H      3.89966111      5.91008381      4.17878327
 H      3.86934938      5.90758047      4.17863008
 H      3.88998220      5.97527034      5.28319218
 H      4.82488640      5.61258931      5.15393120
 H      4.51806494      6.31099725      6.53006582
 H      3.76377566      6.68534827      6.38508993
 H      3.67289830      6.97096255      7.54993304
 H      4.64011472      5.93457060      7.78734167
 H      3.63741776      5.13532460      8.24179438
 H      3.72998419      5.10781060      8.26846951
 H      4.71512732      4.22422151      7.78308597
 H      4.56703210      4.18582664      7.74168177
 H      4.52309619      3.06981797      7.27475340
 H      3.40310832      2.79007756      8.15677061
 H      3.55416679      1.59049459      7.22235447
 H      4.57048403      1.86378406      6.91406087
 H      4.77053440      0.60242714      6.60319575
 H      3.40838524      0.44048278      6.95444359
 H      3.95706189     -0.75007228      6.07675770
 H      4.62206817     -0.57796827      5.89067715
 H      3.42539268     -1.66186142      5.70583528
 H      3.47916137     -0.65447062      4.98850284
 H      2.86206467     -2.48070699      4.96277853
 H      2.87530246     -2.45834551      4.88722499
 H      2.68466763     -3.57284936      5.05142898
 H      3.66877922     -2.80911702      3.78001089
 H      1.89548561     -2.65965307      3.74317406
62
Step 80000 E=         7.5331
 C      0.00000000      0.00000000      0.00000000
 C      1.54000000      0.00000000      0.00000000
 C      2.16637443     -1.23959636      0.66532394
 C      3.69760624     -1.16545237      0.81171998
 C      4.29066247     -2.23997169      1.74193099
 C      5.81866854     -2.14841477      1.91049790
 C      6.49945352     -3.49995308      2.19593788
 C      7.98851453     -3.54600132      1.80583936
 C      8.90286326     -2.71514318      2.72520933
 C      8.74487107     -1.19268032      2.55566487
 C      9.58743651     -0.36189212      3.54129890
 C      9.17212411      1.11856334      3.62713155
 C      7.92626995      1.37021706      4.49668191
 C      6.65797978      0.65441351      3.99601703
 C      5.37099901      1.07320505      4.73079191
 C      4.18699904      0.11176658      4.51776573
 C      2.82240807      0.81545171      4.39810484
 C      1.61530248     -0.12748269      4.55738700
 C      1.75170508     -1.45493917      3.78871697
 C      0.43010715     -2.23142626      3.64023557
 H     -0.36333333      0.00000000      1.02766186
 H     -0.36333333     -0.88998127     -0.51383093
 H     -0.36333333      0.88998127     -0.51383093
 H      1.88274777     -0.75235062      0.71034675
 H      1.88274777     -0.29580299      0.99152638
 H      3.17691978     -1.36368232      0.27609293
 H      3.14910145     -1.40569405      0.22400867
 H      3.96444097     -1.52171490      1.80669547
 H      4.04858853     -2.11102090      1.22501357
 H      5.16805464     -2.66724633      1.25642159
 H      5.21538705     -1.85145616      2.16859260
 H      6.16774972     -3.06929114      2.37764781
 H      6.27175037     -2.99493106      1.39452597
 H      7.44895145     -3.52515126      1.66122419
 H      7.55892355     -3.31861363      2.37687780
 H      8.47558469     -2.65725221      2.20707206
 H      8.46925309     -2.64261135      2.18117521
 H      8.84744632     -1.67252302      2.41220425
 H      8.29639425     -1.95177313      3.21261214
 H      9.23313406     -0.70157815      3.39739993
 H      9.72120079     -0.72897422      2.69657945
 H      9.95116500      0.52339051      3.01968962
 H      8.93368433      0.36548786      4.02257475
 H      8.08382586      1.16771272      3.66306582
 H      8.09156994      1.16409786      3.76288610
 H      7.48856928      0.40612077      4.75559593
 H      7.40084865      0.42384387      4.62478442
 H      6.10034611      0.29898786      4.86251417
 H      5.85350853      1.38710874      3.93211316
 H      4.51679239      0.70188723      4.16461691
 H      4.85653253      0.17119471      5.06215516
 H      3.31874340      0.51685006      5.03751522
 H      3.61711175      0.45581371      3.65465504
 H      2.07127520      0.06635012      4.14761289
 H      2.06559051      0.17492504      4.85093236
 H      1.52770483     -0.72805966      3.65199539
 H      1.98916551     -1.13752115      4.72516287
 H      0.76408366     -1.74768906      3.43234434
 H      0.75469074     -1.78816914      3.50058471
 H     -0.07131561     -1.92316002      2.72282229
 H     -0.21322815     -2.02039636      4.49445221
 H      0.63944850     -3.30031391      3.59833825
62
Step 90000 E=         7.4173
 C      0.00000000      0.00000000      0.00000000
 C      1.54000000      0.00000000      0.00000000
 C      2.16637443      1.21380777     -0.71128460
 C      3.70622215      1.22481536     -0.69263423
 C      4.33527132      2.33031535     -1.56083175
 C      5.87503692      2.31159025     -1.58010033
 C      6.50376575      3.40570457     -2.46283128
 C      8.03446305      3.51305743     -2.33228955
 C      8.62268974      4.81376558     -2.90999854
 C      8.21796336      6.08215311     -2.13605435
 C      8.70206992      6.10520232     -0.67430555
 C      8.40506505      7.42411216      0.06316645
 C      8.21897358      7.26352463      1.58342354
 C      6.74845336      7.28547537      2.04024784
 C      6.03103146      5.92926363      1.90759959
 C      6.66970590      4.79911654      2.73612992
 C      6.16322925      3.39144782      2.37068475
 C      6.69968872      2.27546375      3.28632158
 C      6.05693844      0.89824723      3.03783267
 C      6.18599698     -0.07627991      4.22326117
 H     -0.36333333      0.00000000      1.02766186
 H     -0.36333333     -0.88998127     -0.51383093
 H     -0.36333333      0.88998127     -0.51383093
 H      1.88274777      0.72521763     -0.73802667